 Entering Gaussian System, Link 0=g09
 Input=UNK_C7DFF1.com
 Output=UNK_C7DFF1.log
 Initial command:
 /home/ashort/opt/gaussian/g09/l1.exe "/home/ashort/opt/gaussian/scr/Gau-28857.inp" -scrdir="/home/ashort/opt/gaussian/scr/"
 Entering Link 1 = /home/ashort/opt/gaussian/g09/l1.exe PID=     28859.
  
 Copyright (c) 1988,1990,1992,1993,1995,1998,2003,2009,2015,
            Gaussian, Inc.  All Rights Reserved.
  
 This is part of the Gaussian(R) 09 program.  It is based on
 the Gaussian(R) 03 system (copyright 2003, Gaussian, Inc.),
 the Gaussian(R) 98 system (copyright 1998, Gaussian, Inc.),
 the Gaussian(R) 94 system (copyright 1995, Gaussian, Inc.),
 the Gaussian 92(TM) system (copyright 1992, Gaussian, Inc.),
 the Gaussian 90(TM) system (copyright 1990, Gaussian, Inc.),
 the Gaussian 88(TM) system (copyright 1988, Gaussian, Inc.),
 the Gaussian 86(TM) system (copyright 1986, Carnegie Mellon
 University), and the Gaussian 82(TM) system (copyright 1983,
 Carnegie Mellon University). Gaussian is a federally registered
 trademark of Gaussian, Inc.
  
 This software contains proprietary and confidential information,
 including trade secrets, belonging to Gaussian, Inc.
  
 This software is provided under written license and may be
 used, copied, transmitted, or stored only in accord with that
 written license.
  
 The following legend is applicable only to US Government
 contracts under FAR:
  
                    RESTRICTED RIGHTS LEGEND
  
 Use, reproduction and disclosure by the US Government is
 subject to restrictions as set forth in subparagraphs (a)
 and (c) of the Commercial Computer Software - Restricted
 Rights clause in FAR 52.227-19.
  
 Gaussian, Inc.
 340 Quinnipiac St., Bldg. 40, Wallingford CT 06492
  
  
 ---------------------------------------------------------------
 Warning -- This program may not be used in any manner that
 competes with the business of Gaussian, Inc. or will provide
 assistance to any competitor of Gaussian, Inc.  The licensee
 of this program is prohibited from giving any competitor of
 Gaussian, Inc. access to this program.  By using this program,
 the user acknowledges that Gaussian, Inc. is engaged in the
 business of creating and licensing software in the field of
 computational chemistry and represents and warrants to the
 licensee that it is not a competitor of Gaussian, Inc. and that
 it will not use this program in any manner prohibited above.
 ---------------------------------------------------------------
  

 Cite this work as:
 Gaussian 09, Revision E.01,
 M. J. Frisch, G. W. Trucks, H. B. Schlegel, G. E. Scuseria, 
 M. A. Robb, J. R. Cheeseman, G. Scalmani, V. Barone, B. Mennucci, 
 G. A. Petersson, H. Nakatsuji, M. Caricato, X. Li, H. P. Hratchian, 
 A. F. Izmaylov, J. Bloino, G. Zheng, J. L. Sonnenberg, M. Hada, 
 M. Ehara, K. Toyota, R. Fukuda, J. Hasegawa, M. Ishida, T. Nakajima, 
 Y. Honda, O. Kitao, H. Nakai, T. Vreven, J. A. Montgomery, Jr., 
 J. E. Peralta, F. Ogliaro, M. Bearpark, J. J. Heyd, E. Brothers, 
 K. N. Kudin, V. N. Staroverov, T. Keith, R. Kobayashi, J. Normand, 
 K. Raghavachari, A. Rendell, J. C. Burant, S. S. Iyengar, J. Tomasi, 
 M. Cossi, N. Rega, J. M. Millam, M. Klene, J. E. Knox, J. B. Cross, 
 V. Bakken, C. Adamo, J. Jaramillo, R. Gomperts, R. E. Stratmann, 
 O. Yazyev, A. J. Austin, R. Cammi, C. Pomelli, J. W. Ochterski, 
 R. L. Martin, K. Morokuma, V. G. Zakrzewski, G. A. Voth, 
 P. Salvador, J. J. Dannenberg, S. Dapprich, A. D. Daniels, 
 O. Farkas, J. B. Foresman, J. V. Ortiz, J. Cioslowski, 
 and D. J. Fox, Gaussian, Inc., Wallingford CT, 2013.
 
 ******************************************
 Gaussian 09:  ES64L-G09RevE.01 30-Nov-2015
                 6-Jun-2024 
 ******************************************
 %NProcShared=32
 Will use up to   32 processors via shared memory.
 %chk=./electrostatic_grid.chk
 %mem=4000MB
 ---------------------------------------------------------------
 # HF/6-31G* SCF=Tight Pop=MK IOp(6/33=2,6/41=10,6/42=17) Nosymm
 ---------------------------------------------------------------
 1/38=1/1;
 2/12=2,15=1,17=6,18=5,40=1/2;
 3/5=1,6=6,7=1,11=9,16=1,25=1,30=1/1,2,3;
 4//1;
 5/5=2,32=2,38=5/2;
 6/7=2,8=2,9=2,10=2,15=8,20=1,28=1,33=2,41=10,42=17/1,2;
 99/5=1,9=1/99;
 --------------
 UNK_C7DFF1.pdb
 --------------
 Symbolic Z-matrix:
 Charge =  0 Multiplicity = 1
 C                     1.        1.        0. 
 C                    -0.505     1.        0. 
 O                    -1.147     1.        1.049 
 C                    -1.193     0.998    -1.338 
 H                     1.368     1.        1.03 
 H                     1.365     1.897    -0.506 
 H                     1.365     0.103    -0.506 
 H                    -0.456     0.997    -2.146 
 H                    -1.809     1.896    -1.427 
 H                    -1.809     0.1      -1.425 
 
                          Input orientation:                          
 ---------------------------------------------------------------------
 Center     Atomic      Atomic             Coordinates (Angstroms)
 Number     Number       Type             X           Y           Z
 ---------------------------------------------------------------------
      1          6           0        1.000000    1.000000    0.000000
      2          6           0       -0.505000    1.000000    0.000000
      3          8           0       -1.147000    1.000000    1.049000
      4          6           0       -1.193000    0.998000   -1.338000
      5          1           0        1.368000    1.000000    1.030000
      6          1           0        1.365000    1.897000   -0.506000
      7          1           0        1.365000    0.103000   -0.506000
      8          1           0       -0.456000    0.997000   -2.146000
      9          1           0       -1.809000    1.896000   -1.427000
     10          1           0       -1.809000    0.100000   -1.425000
 ---------------------------------------------------------------------
                    Distance matrix (angstroms):
                    1          2          3          4          5
     1  C    0.000000
     2  C    1.505000   0.000000
     3  O    2.389563   1.229864   0.000000
     4  C    2.568949   1.504524   2.387444   0.000000
     5  H    1.093766   2.137529   2.515072   3.488001   0.000000
     6  H    1.092644   2.134841   3.087520   2.836157   1.778739
     7  H    1.092644   2.134841   3.087520   2.834892   1.778739
     8  H    2.593311   2.146561   3.268871   1.093633   3.662507
     9  H    3.275611   2.130625   2.715076   1.092603   4.114972
    10  H    3.275837   2.130972   2.714575   1.092442   4.114651
                    6          7          8          9         10
     6  H    0.000000
     7  H    1.794000   0.000000
     8  H    2.610678   2.608616   0.000000
     9  H    3.304923   3.759969   1.776449   0.000000
    10  H    3.761389   3.304368   1.776249   1.796001   0.000000
 Symmetry turned off by external request.
 Stoichiometry    C3H6O
 Framework group  C1[X(C3H6O)]
 Deg. of freedom    24
 Full point group                 C1      NOp   1
 Rotational constants (GHZ):     10.1470184      8.5470169      4.9333924
 Standard basis: 6-31G(d) (6D, 7F)
    72 basis functions,   136 primitive gaussians,    72 cartesian basis functions
    16 alpha electrons       16 beta electrons
       nuclear repulsion energy       119.3485119758 Hartrees.
 NAtoms=   10 NActive=   10 NUniq=   10 SFac= 1.00D+00 NAtFMM=   60 NAOKFM=F Big=F
 Integral buffers will be    131072 words long.
 Raffenetti 1 integral format.
 Two-electron integral symmetry is turned off.
 One-electron integrals computed using PRISM.
 NBasis=    72 RedAO= T EigKep=  4.87D-03  NBF=    72
 NBsUse=    72 1.00D-06 EigRej= -1.00D+00 NBFU=    72
 ExpMin= 1.61D-01 ExpMax= 5.48D+03 ExpMxC= 8.25D+02 IAcc=1 IRadAn=         1 AccDes= 0.00D+00
 Harris functional with IExCor=  205 and IRadAn=       1 diagonalized for initial guess.
 HarFok:  IExCor=  205 AccDes= 0.00D+00 IRadAn=         1 IDoV= 1 UseB2=F ITyADJ=14
 ICtDFT=  3500011 ScaDFX=  1.000000  1.000000  1.000000  1.000000
 FoFCou: FMM=F IPFlag=           0 FMFlag=      100000 FMFlg1=           0
         NFxFlg=           0 DoJE=T BraDBF=F KetDBF=T FulRan=T
         wScrn=  0.000000 ICntrl=     500 IOpCl=  0 I1Cent=   200000004 NGrid=           0
         NMat0=    1 NMatS0=      1 NMatT0=    0 NMatD0=    1 NMtDS0=    0 NMtDT0=    0
 Symmetry not used in FoFCou.
 Keep R1 ints in memory in canonical form, NReq=4346660.
 Requested convergence on RMS density matrix=1.00D-08 within 128 cycles.
 Requested convergence on MAX density matrix=1.00D-06.
 Requested convergence on             energy=1.00D-06.
 No special actions if energy rises.
 SCF Done:  E(RHF) =  -191.957633219     A.U. after   12 cycles
            NFock= 12  Conv=0.30D-08     -V/T= 2.0023

 **********************************************************************

            Population analysis using the SCF density.

 **********************************************************************

 Alpha  occ. eigenvalues --  -20.54830 -11.33396 -11.23609 -11.23549  -1.36981
 Alpha  occ. eigenvalues --   -1.04441  -0.96838  -0.73788  -0.63600  -0.63233
 Alpha  occ. eigenvalues --   -0.62476  -0.57139  -0.55614  -0.53087  -0.47394
 Alpha  occ. eigenvalues --   -0.40948
 Alpha virt. eigenvalues --    0.15623   0.22672   0.28189   0.29370   0.29801
 Alpha virt. eigenvalues --    0.30790   0.34994   0.37764   0.46305   0.48968
 Alpha virt. eigenvalues --    0.72263   0.75013   0.80044   0.80072   0.83900
 Alpha virt. eigenvalues --    0.88512   0.88559   0.95114   0.97925   1.05395
 Alpha virt. eigenvalues --    1.11027   1.11846   1.15429   1.17259   1.19236
 Alpha virt. eigenvalues --    1.19512   1.21953   1.32786   1.37758   1.41180
 Alpha virt. eigenvalues --    1.62823   1.64424   1.72383   1.81873   2.07620
 Alpha virt. eigenvalues --    2.08295   2.09699   2.10708   2.20990   2.21685
 Alpha virt. eigenvalues --    2.32377   2.43383   2.49138   2.55042   2.56748
 Alpha virt. eigenvalues --    2.68624   2.69886   2.80923   2.94817   3.04743
 Alpha virt. eigenvalues --    3.32320   3.33887   4.34877   4.50871   4.68384
 Alpha virt. eigenvalues --    4.89505
          Condensed to atoms (all electrons):
               1          2          3          4          5          6
     1  C    5.273905   0.341654  -0.072075  -0.105745   0.380777   0.374529
     2  C    0.341654   4.443600   0.559437   0.315752  -0.034714  -0.031597
     3  O   -0.072075   0.559437   8.122822  -0.077389   0.004482   0.001312
     4  C   -0.105745   0.315752  -0.077389   5.297824   0.004992   0.002355
     5  H    0.380777  -0.034714   0.004482   0.004992   0.476705  -0.020147
     6  H    0.374529  -0.031597   0.001312   0.002355  -0.020147   0.510586
     7  H    0.374590  -0.031615   0.001309   0.002353  -0.020162  -0.021540
     8  H    0.003244  -0.036447   0.003218   0.373126   0.000049  -0.000920
     9  H    0.003125  -0.025240  -0.000311   0.378513  -0.000134  -0.000276
    10  H    0.003121  -0.025205  -0.000316   0.378581  -0.000134   0.000094
               7          8          9         10
     1  C    0.374590   0.003244   0.003125   0.003121
     2  C   -0.031615  -0.036447  -0.025240  -0.025205
     3  O    0.001309   0.003218  -0.000311  -0.000316
     4  C    0.002353   0.373126   0.378513   0.378581
     5  H   -0.020162   0.000049  -0.000134  -0.000134
     6  H   -0.021540  -0.000920  -0.000276   0.000094
     7  H    0.510558  -0.000927   0.000095  -0.000275
     8  H   -0.000927   0.537081  -0.024325  -0.024350
     9  H    0.000095  -0.024325   0.473419  -0.012732
    10  H   -0.000275  -0.024350  -0.012732   0.473233
 Mulliken charges:
               1
     1  C   -0.577126
     2  C    0.524375
     3  O   -0.542489
     4  C   -0.570363
     5  H    0.208286
     6  H    0.185602
     7  H    0.185614
     8  H    0.170251
     9  H    0.207866
    10  H    0.207983
 Sum of Mulliken charges =   0.00000
 Mulliken charges with hydrogens summed into heavy atoms:
               1
     1  C    0.002376
     2  C    0.524375
     3  O   -0.542489
     4  C    0.015737
 DipInt: DoE/N= T F RetVal/Mat= T F Init=T NMatP=  1 IDeriv=0 Min/MaxMlt=  0  4
 Entering OneElI...
 OneElI was handed   524273091 working-precision words.
 Multipole integrals L=0 to 4 MinM= 0 MaxM= 0.
 Requested accuracy = 0.1000D-12
 ShPair: Thresh= 1.00D-13 NBox=     0 BxSize= 0.00D+00 RnKept= 7.78D+00
         NSMCal=                  406 NSMKep=                 403
 PrsmSu:  NPrtUS=   1 ThrOK=F IAlg=1 NPAlg=1 LenDen=           0.
 Prism:   IPart=     0 DynPar=F LinDyn=F Incr=           4.
 PRISM was handed   524232148 working-precision words and   403 shell-pairs
 IPart=  0 NShTot=         403 NBatch=          30 AvBLen=        13.4
 PrSmSu:  NxtVal=              5.
 Electronic moments (au):
        -32.00000000         25.85731462        -60.43572110          7.60014734
       -158.82025807       -143.40157229       -126.64482412         48.78229321
        -19.08424862         14.26826221        187.38372267       -381.33002846
        151.65634667        109.06732756       -299.90242099         68.60179801
        222.25427636       -239.04693177         53.05810848        -35.86746340
      -1377.13157120      -1159.62935610      -1201.43974299        353.40530048
       -260.60725266        269.85357283        198.89949450       -330.82577810
        285.66812355       -768.12258984       -728.83593632       -584.68490901
        129.11283818       -120.32202191        419.46866938
 Electronic spatial extent (au):  <R**2>=            428.8667
 DipInt: DoE/N= F T RetVal/Mat= T F Init=T NMatP=  1 IDeriv=0 Min/MaxMlt=  0  4
 Nuclear    moments (au):
         32.00000000        -25.20894661         60.43533146         -8.72297583
        139.07614933        125.64458520        106.38171499        -47.55615639
         21.84521791        -16.38975213       -143.87660600        280.72750686
       -134.87481522        -94.57922045        262.60803428        -68.31079755
       -203.92590184        200.77377418        -51.80953008         41.08469701
        819.95557936        686.25177259        760.71910439       -271.32194437
        231.04541190       -196.60328410       -176.83891845        289.39163627
       -254.12360901        601.40788855        562.07296542        425.99738701
       -128.61712145        116.14983535       -384.88745044
 Total      moments (au):
          0.00000000          0.64836801         -0.00038964         -1.12282849
        -19.74410873        -17.75698709        -20.26310913          1.22613682
          2.76096930         -2.12148991         43.50711667       -100.60252160
         16.78153145         14.48810711        -37.29438671          0.29100046
         18.32837451        -38.27315759          1.24857840          5.21723360
       -557.17599184       -473.37758351       -440.72063860         82.08335611
        -29.56184077         73.25028873         22.06057606        -41.43414184
         31.54451454       -166.71470129       -166.76297091       -158.68752200
          0.49571673         -4.17218656         34.58121894
 Traceless Quadrup. (au):
         -0.48937375          1.49774790         -1.00837415          1.22613682
          2.76096930         -2.12148991
 Charge=              0.0000 electrons
 Dipole moment (field-independent basis, Debye):
    X=              1.6480    Y=             -0.0010    Z=             -2.8539  Tot=              3.2956
 Quadrupole moment (field-independent basis, Debye-Ang):
   XX=            -26.5565   YY=            -23.8838   ZZ=            -27.2546
   XY=              1.6492   XZ=              3.7136   YZ=             -2.8535
 Traceless Quadrupole moment (field-independent basis, Debye-Ang):
   XX=             -0.6582   YY=              2.0145   ZZ=             -1.3563
   XY=              1.6492   XZ=              3.7136   YZ=             -2.8535
 Octapole moment (field-independent basis, Debye-Ang**2):
  XXX=             30.9667  YYY=            -71.6050  ZZZ=             11.9444  XYY=             10.3121
  XXY=            -26.5447  XXZ=              0.2071  XZZ=             13.0454  YZZ=            -27.2414
  YYZ=              0.8887  XYZ=              3.7134
 Hexadecapole moment (field-independent basis, Debye-Ang**3):
 XXXX=           -209.8592 YYYY=           -178.2967 ZZZZ=           -165.9965 XXXY=             30.9165
 XXXZ=            -11.1344 YYYX=             27.5896 YYYZ=              8.3091 ZZZX=            -15.6061
 ZZZY=             11.8812 XXYY=            -62.7927 XXZZ=            -62.8109 YYZZ=            -59.7693
 XXYZ=              0.1867 YYXZ=             -1.5714 ZZXY=             13.0249
 N-N= 1.193485119758D+02 E-N=-6.883202546780D+02  KE= 1.915264417290D+02
 Entering OneElI...
 OneElI was handed   524275397 working-precision words.
 Calculate electrostatic properties
    NBasis =    72  MinDer = 0  MaxDer = 0
    NGrid  =    10  NMatD  =   1
 Requested accuracy = 0.1000D-12
 ShPair: Thresh= 1.00D-13 NBox=     0 BxSize= 0.00D+00 RnKept= 7.78D+00
         NSMCal=                  406 NSMKep=                 403
 PrsmSu:  NPrtUS=  32 ThrOK=T IAlg=1 NPAlg=1 LenDen=           0.
 Prism:   IPart=     0 DynPar=F LinDyn=F Incr=           1.
 PRISM was handed    16367093 working-precision words and   403 shell-pairs
 PRISM was handed    16367093 working-precision words and   403 shell-pairs
 PRISM was handed    16367093 working-precision words and   403 shell-pairs
 PRISM was handed    16367093 working-precision words and   403 shell-pairs
 PRISM was handed    16367093 working-precision words and   403 shell-pairs
 PRISM was handed    16367093 working-precision words and   403 shell-pairs
 PRISM was handed    16367093 working-precision words and   403 shell-pairs
 PRISM was handed    16367093 working-precision words and   403 shell-pairs
 PRISM was handed    16367093 working-precision words and   403 shell-pairs
 PRISM was handed    16367093 working-precision words and   403 shell-pairs
 PRISM was handed    16367093 working-precision words and   403 shell-pairs
 PRISM was handed    16367093 working-precision words and   403 shell-pairs
 PRISM was handed    16367093 working-precision words and   403 shell-pairs
 PRISM was handed    16367093 working-precision words and   403 shell-pairs
 PRISM was handed    16367093 working-precision words and   403 shell-pairs
 PRISM was handed    16367093 working-precision words and   403 shell-pairs
 PRISM was handed    16367093 working-precision words and   403 shell-pairs
 PRISM was handed    16367093 working-precision words and   403 shell-pairs
 PRISM was handed    16367093 working-precision words and   403 shell-pairs
 PRISM was handed    16367093 working-precision words and   403 shell-pairs
 PRISM was handed    16367093 working-precision words and   403 shell-pairs
 PRISM was handed    16367093 working-precision words and   403 shell-pairs
 PRISM was handed    16367093 working-precision words and   403 shell-pairs
 PRISM was handed    16367093 working-precision words and   403 shell-pairs
 PRISM was handed    16367093 working-precision words and   403 shell-pairs
 PRISM was handed    16367093 working-precision words and   403 shell-pairs
 PRISM was handed    16367093 working-precision words and   403 shell-pairs
 PRISM was handed    16367093 working-precision words and   403 shell-pairs
 PRISM was handed    16367093 working-precision words and   403 shell-pairs
 PRISM was handed    16367093 working-precision words and   403 shell-pairs
 PRISM was handed    16367093 working-precision words and   403 shell-pairs
 PRISM was handed    16367093 working-precision words and   403 shell-pairs
 IPart=  8 NShTot=         160 NBatch=          16 AvBLen=        10.0
 IPart= 22 NShTot=          70 NBatch=           7 AvBLen=        10.0
 IPart= 12 NShTot=         130 NBatch=          13 AvBLen=        10.0
 IPart= 10 NShTot=         130 NBatch=          13 AvBLen=        10.0
 IPart= 20 NShTot=          70 NBatch=           7 AvBLen=        10.0
 IPart= 14 NShTot=         130 NBatch=          13 AvBLen=        10.0
 IPart=  7 NShTot=         180 NBatch=          18 AvBLen=        10.0
 IPart= 16 NShTot=          80 NBatch=           8 AvBLen=        10.0
 IPart= 21 NShTot=          70 NBatch=           7 AvBLen=        10.0
 IPart=  9 NShTot=         160 NBatch=          16 AvBLen=        10.0
 IPart= 23 NShTot=          70 NBatch=           7 AvBLen=        10.0
 IPart= 25 NShTot=          40 NBatch=           4 AvBLen=        10.0
 IPart= 19 NShTot=          80 NBatch=           8 AvBLen=        10.0
 IPart= 15 NShTot=         130 NBatch=          13 AvBLen=        10.0
 IPart= 13 NShTot=         130 NBatch=          13 AvBLen=        10.0
 IPart= 17 NShTot=          80 NBatch=           8 AvBLen=        10.0
 IPart=  5 NShTot=         210 NBatch=          21 AvBLen=        10.0
 IPart=  0 NShTot=         360 NBatch=          36 AvBLen=        10.0
 IPart= 28 NShTot=          30 NBatch=           3 AvBLen=        10.0
 IPart= 30 NShTot=          30 NBatch=           3 AvBLen=        10.0
 IPart= 26 NShTot=          40 NBatch=           4 AvBLen=        10.0
 IPart= 11 NShTot=         130 NBatch=          13 AvBLen=        10.0
 IPart= 18 NShTot=          80 NBatch=           8 AvBLen=        10.0
 IPart=  4 NShTot=         230 NBatch=          23 AvBLen=        10.0
 IPart= 24 NShTot=          50 NBatch=           5 AvBLen=        10.0
 IPart=  6 NShTot=         180 NBatch=          18 AvBLen=        10.0
 IPart= 29 NShTot=          30 NBatch=           3 AvBLen=        10.0
 IPart=  2 NShTot=         290 NBatch=          29 AvBLen=        10.0
 IPart= 27 NShTot=          30 NBatch=           3 AvBLen=        10.0
 IPart=  1 NShTot=         330 NBatch=          33 AvBLen=        10.0
 IPart=  3 NShTot=         270 NBatch=          27 AvBLen=        10.0
 IPart= 31 NShTot=          30 NBatch=           3 AvBLen=        10.0
 PrSmSu:  NxtVal=             33.
 --------------------------------------------------------
       Center         ----      EFG at Nuclei      ----
                      3XX-RR        3YY-RR        3ZZ-RR
 --------------------------------------------------------
     1   Atom       -0.032039     -0.019817      0.051856
     2   Atom        0.338346     -0.654525      0.316178
     3   Atom        1.355367     -1.400524      0.045157
     4   Atom        0.013199      0.013529     -0.026728
     5   Atom        0.093739      0.149341     -0.243081
     6   Atom        0.093224     -0.148758      0.055534
     7   Atom        0.093227     -0.148757      0.055530
     8   Atom       -0.056824      0.154881     -0.098057
     9   Atom        0.007906     -0.152289      0.144384
    10   Atom        0.007878     -0.152528      0.144650
 --------------------------------------------------------
                        XY            XZ            YZ
 --------------------------------------------------------
     1   Atom        0.000109     -0.010629      0.000024
     2   Atom        0.000525      0.018273      0.000782
     3   Atom        0.001975      1.225733      0.002304
     4   Atom        0.000062     -0.016127     -0.000157
     5   Atom        0.000003     -0.141907     -0.000005
     6   Atom       -0.122658      0.068717      0.176012
     7   Atom        0.122641      0.068699     -0.176013
     8   Atom        0.000257      0.216889     -0.000312
     9   Atom        0.210020     -0.025127      0.028875
    10   Atom       -0.210282     -0.024644     -0.028213
 --------------------------------------------------------


 ---------------------------------------------------------------------------------
              Nuclear Quadrupole Coupling Constant in Principal Axis System
 ---------------------------------------------------------------------------------

       Atom             a.u.   MegaHertz   Gauss  10(-4) cm-1        Axes


 ---------------------------------------------------------------------------------

 No NMR shielding tensors so no spin-rotation constants.
 Leave Link  601 at Thu Jun  6 20:23:26 2024, MaxMem=   524288000 cpu:        14.5
 FitSet:  NAtFit=    10 NAtPot=    10 NAtFrz=     0 MDM=    14 TotChg=   0.00000
 Merz-Kollman atomic radii used.
 Atom Element Radius
    1     6    1.50
    2     6    1.50
    3     8    1.40
    4     6    1.50
    5     1    1.20
    6     1    1.20
    7     1    1.20
    8     1    1.20
    9     1    1.20
   10     1    1.20
 Generate VDW surfaces: Layer=10 Dens=17 Start= 1.400 Inc= 0.126

 **********************************************************************

            Electrostatic Properties Using The SCF Density

 **********************************************************************

       Atomic Center    1 is at   1.000000  1.000000  0.000000
       Atomic Center    2 is at  -0.505000  1.000000  0.000000
       Atomic Center    3 is at  -1.147000  1.000000  1.049000
       Atomic Center    4 is at  -1.193000  0.998000 -1.338000
       Atomic Center    5 is at   1.368000  1.000000  1.030000
       Atomic Center    6 is at   1.365000  1.897000 -0.506000
       Atomic Center    7 is at   1.365000  0.103000 -0.506000
       Atomic Center    8 is at  -0.456000  0.997000 -2.146000
       Atomic Center    9 is at  -1.809000  1.896000 -1.427000
       Atomic Center   10 is at  -1.809000  0.100000 -1.425000
      ESP Fit Center   11 is at   0.694464  2.496615  1.441107
      ESP Fit Center   12 is at   0.458346  2.428223  1.441107
      ESP Fit Center   13 is at   0.458346 -0.428223  1.441107
      ESP Fit Center   14 is at   0.694464 -0.496615  1.441107
      ESP Fit Center   15 is at   1.184231  2.674354  1.254033
      ESP Fit Center   16 is at   0.938480  2.683335  1.254033
      ESP Fit Center   17 is at   0.694040  2.656439  1.254033
      ESP Fit Center   18 is at   0.456121  2.594239  1.254033
      ESP Fit Center   19 is at   0.456121 -0.594239  1.254033
      ESP Fit Center   20 is at   0.694040 -0.656439  1.254033
      ESP Fit Center   21 is at   0.938480 -0.683335  1.254033
      ESP Fit Center   22 is at   1.184231 -0.674354  1.254033
      ESP Fit Center   23 is at   1.836699  2.614755  1.050000
      ESP Fit Center   24 is at   1.609030  2.713646  1.050000
      ESP Fit Center   25 is at   1.370016  2.780615  1.050000
      ESP Fit Center   26 is at   1.124109  2.814414  1.050000
      ESP Fit Center   27 is at   0.875891  2.814414  1.050000
      ESP Fit Center   28 is at   0.629984  2.780615  1.050000
      ESP Fit Center   29 is at   0.390970  2.713646  1.050000
      ESP Fit Center   30 is at   0.390970 -0.713646  1.050000
      ESP Fit Center   31 is at   0.629984 -0.780615  1.050000
      ESP Fit Center   32 is at   0.875891 -0.814414  1.050000
      ESP Fit Center   33 is at   1.124109 -0.814414  1.050000
      ESP Fit Center   34 is at   1.370016 -0.780615  1.050000
      ESP Fit Center   35 is at   1.609030 -0.713646  1.050000
      ESP Fit Center   36 is at   1.836699 -0.614755  1.050000
      ESP Fit Center   37 is at   2.385160  2.341453  0.831768
      ESP Fit Center   38 is at   2.202247  2.507570  0.831768
      ESP Fit Center   39 is at   1.061804  2.927263  0.831768
      ESP Fit Center   40 is at   0.814843  2.919344  0.831768
      ESP Fit Center   41 is at   0.570923  2.879908  0.831768
      ESP Fit Center   42 is at   0.334049  2.809605  0.831768
      ESP Fit Center   43 is at   0.334049 -0.809605  0.831768
      ESP Fit Center   44 is at   0.570923 -0.879908  0.831768
      ESP Fit Center   45 is at   0.814843 -0.919344  0.831768
      ESP Fit Center   46 is at   1.061804 -0.927263  0.831768
      ESP Fit Center   47 is at   2.202247 -0.507570  0.831768
      ESP Fit Center   48 is at   2.385160 -0.341453  0.831768
      ESP Fit Center   49 is at   3.011778  1.000000  0.602287
      ESP Fit Center   50 is at   2.996530  1.247224  0.602287
      ESP Fit Center   51 is at   2.951016  1.490700  0.602287
      ESP Fit Center   52 is at   2.875927  1.726738  0.602287
      ESP Fit Center   53 is at   2.772401  1.951759  0.602287
      ESP Fit Center   54 is at   2.642007  2.162353  0.602287
      ESP Fit Center   55 is at   0.691410  2.987970  0.602287
      ESP Fit Center   56 is at   0.449451  2.934980  0.602287
      ESP Fit Center   57 is at   0.449451 -0.934980  0.602287
      ESP Fit Center   58 is at   0.691410 -0.987970  0.602287
      ESP Fit Center   59 is at   2.642007 -0.162353  0.602287
      ESP Fit Center   60 is at   2.772401  0.048241  0.602287
      ESP Fit Center   61 is at   2.875927  0.273262  0.602287
      ESP Fit Center   62 is at   2.951016  0.509300  0.602287
      ESP Fit Center   63 is at   2.996530  0.752776  0.602287
      ESP Fit Center   64 is at   3.068096  1.000000  0.364661
      ESP Fit Center   65 is at   3.053581  1.244600  0.364661
      ESP Fit Center   66 is at   3.010237  1.485767  0.364661
      ESP Fit Center   67 is at   2.938674  1.720115  0.364661
      ESP Fit Center   68 is at   2.839897  1.944353  0.364661
      ESP Fit Center   69 is at   0.337651  2.959162  0.364661
      ESP Fit Center   70 is at   0.337651 -0.959162  0.364661
      ESP Fit Center   71 is at   2.839897  0.055647  0.364661
      ESP Fit Center   72 is at   2.938674  0.279885  0.364661
      ESP Fit Center   73 is at   3.010237  0.514233  0.364661
      ESP Fit Center   74 is at   3.053581  0.755400  0.364661
      ESP Fit Center   75 is at   3.096447  1.000000  0.122104
      ESP Fit Center   76 is at   3.081732  1.247953  0.122104
      ESP Fit Center   77 is at   3.037795  1.492426  0.122104
      ESP Fit Center   78 is at   2.965251  1.729986  0.122104
      ESP Fit Center   79 is at   2.965251  0.270014  0.122104
      ESP Fit Center   80 is at   3.037795  0.507574  0.122104
      ESP Fit Center   81 is at   3.081732  0.752047  0.122104
      ESP Fit Center   82 is at   3.096447  1.000000 -0.122104
      ESP Fit Center   83 is at   3.081732  1.247953 -0.122104
      ESP Fit Center   84 is at   3.037795  1.492426 -0.122104
      ESP Fit Center   85 is at   3.037795  0.507574 -0.122104
      ESP Fit Center   86 is at   3.081732  0.752047 -0.122104
      ESP Fit Center   87 is at   3.068096  1.000000 -0.364661
      ESP Fit Center   88 is at   3.053581  1.244600 -0.364661
      ESP Fit Center   89 is at   3.010237  1.485767 -0.364661
      ESP Fit Center   90 is at   3.010237  0.514233 -0.364661
      ESP Fit Center   91 is at   3.053581  0.755400 -0.364661
      ESP Fit Center   92 is at   3.011778  1.000000 -0.602287
      ESP Fit Center   93 is at   2.996530  1.247224 -0.602287
      ESP Fit Center   94 is at   2.996530  0.752776 -0.602287
      ESP Fit Center   95 is at   2.928254  1.000000 -0.831768
      ESP Fit Center   96 is at   2.912423  1.246580 -0.831768
      ESP Fit Center   97 is at   2.912423  0.753420 -0.831768
      ESP Fit Center   98 is at   2.818653  1.000000 -1.050000
      ESP Fit Center   99 is at   2.684459  1.000000 -1.254033
      ESP Fit Center  100 is at   2.527485  1.000000 -1.441107
      ESP Fit Center  101 is at   2.349854  1.000000 -1.608693
      ESP Fit Center  102 is at   2.153969  1.000000 -1.754524
      ESP Fit Center  103 is at   1.942478  1.000000 -1.876629
      ESP Fit Center  104 is at   1.718242  1.000000 -1.973355
      ESP Fit Center  105 is at   1.484293  1.000000 -2.043394
      ESP Fit Center  106 is at   1.243795  1.000000 -2.085801
      ESP Fit Center  107 is at   0.153800  2.550285  1.254033
      ESP Fit Center  108 is at   0.153800 -0.550285  1.254033
      ESP Fit Center  109 is at   0.104030  2.713646  1.050000
      ESP Fit Center  110 is at  -0.134984  2.780615  1.050000
      ESP Fit Center  111 is at  -0.380891  2.814414  1.050000
      ESP Fit Center  112 is at  -0.380891 -0.814414  1.050000
      ESP Fit Center  113 is at  -0.134984 -0.780615  1.050000
      ESP Fit Center  114 is at   0.104030 -0.713646  1.050000
      ESP Fit Center  115 is at   0.043641  2.848555  0.831768
      ESP Fit Center  116 is at  -0.197251  2.903537  0.831768
      ESP Fit Center  117 is at  -0.443196  2.927263  0.831768
      ESP Fit Center  118 is at  -0.690157  2.919344  0.831768
      ESP Fit Center  119 is at  -0.690157 -0.919344  0.831768
      ESP Fit Center  120 is at  -0.443196 -0.927263  0.831768
      ESP Fit Center  121 is at  -0.197251 -0.903537  0.831768
      ESP Fit Center  122 is at   0.043641 -0.848555  0.831768
      ESP Fit Center  123 is at   0.163624  2.897417  0.602287
      ESP Fit Center  124 is at  -0.074614  2.965202  0.602287
      ESP Fit Center  125 is at  -0.319377  3.003196  0.602287
      ESP Fit Center  126 is at  -0.566953  3.010824  0.602287
      ESP Fit Center  127 is at  -0.813590  2.987970  0.602287
      ESP Fit Center  128 is at  -1.055549  2.934980  0.602287
      ESP Fit Center  129 is at  -1.055549 -0.934980  0.602287
      ESP Fit Center  130 is at  -0.813590 -0.987970  0.602287
      ESP Fit Center  131 is at  -0.566953 -1.010824  0.602287
      ESP Fit Center  132 is at  -0.319377 -1.003196  0.602287
      ESP Fit Center  133 is at  -0.074614 -0.965202  0.602287
      ESP Fit Center  134 is at   0.163624 -0.897417  0.602287
      ESP Fit Center  135 is at   0.040124  2.994959  0.364661
      ESP Fit Center  136 is at  -0.199653  3.045430  0.364661
      ESP Fit Center  137 is at  -0.443715  3.067188  0.364661
      ESP Fit Center  138 is at  -0.688638  3.059927  0.364661
      ESP Fit Center  139 is at  -0.930984  3.023749  0.364661
      ESP Fit Center  140 is at  -1.167349  2.959162  0.364661
      ESP Fit Center  141 is at  -1.394416  2.867073  0.364661
      ESP Fit Center  142 is at  -1.394416 -0.867073  0.364661
      ESP Fit Center  143 is at  -1.167349 -0.959162  0.364661
      ESP Fit Center  144 is at  -0.930984 -1.023749  0.364661
      ESP Fit Center  145 is at  -0.688638 -1.059927  0.364661
      ESP Fit Center  146 is at  -0.443715 -1.067188  0.364661
      ESP Fit Center  147 is at  -0.199653 -1.045430  0.364661
      ESP Fit Center  148 is at   0.040124 -0.994959  0.364661
      ESP Fit Center  149 is at   0.047597  3.022307  0.122104
      ESP Fit Center  150 is at  -0.195467  3.073470  0.122104
      ESP Fit Center  151 is at  -0.442875  3.095526  0.122104
      ESP Fit Center  152 is at  -0.691156  3.088166  0.122104
      ESP Fit Center  153 is at  -0.936823  3.051492  0.122104
      ESP Fit Center  154 is at  -1.176429  2.986020  0.122104
      ESP Fit Center  155 is at  -1.406609  2.892668  0.122104
      ESP Fit Center  156 is at  -1.624132  2.772747  0.122104
      ESP Fit Center  157 is at  -1.825946  2.627941  0.122104
      ESP Fit Center  158 is at  -1.825946 -0.627941  0.122104
      ESP Fit Center  159 is at  -1.624132 -0.772747  0.122104
      ESP Fit Center  160 is at  -1.406609 -0.892668  0.122104
      ESP Fit Center  161 is at  -1.176429 -0.986020  0.122104
      ESP Fit Center  162 is at  -0.936823 -1.051492  0.122104
      ESP Fit Center  163 is at  -0.691156 -1.088166  0.122104
      ESP Fit Center  164 is at  -0.442875 -1.095526  0.122104
      ESP Fit Center  165 is at  -0.195467 -1.073470  0.122104
      ESP Fit Center  166 is at   0.047597 -1.022307  0.122104
      ESP Fit Center  167 is at   0.047597  3.022307 -0.122104
      ESP Fit Center  168 is at  -0.195467  3.073470 -0.122104
      ESP Fit Center  169 is at  -0.442875  3.095526 -0.122104
      ESP Fit Center  170 is at  -0.691156  3.088166 -0.122104
      ESP Fit Center  171 is at  -0.936823  3.051492 -0.122104
      ESP Fit Center  172 is at  -1.176429  2.986020 -0.122104
      ESP Fit Center  173 is at  -1.406609  2.892668 -0.122104
      ESP Fit Center  174 is at  -1.406609 -0.892668 -0.122104
      ESP Fit Center  175 is at  -1.176429 -0.986020 -0.122104
      ESP Fit Center  176 is at  -0.936823 -1.051492 -0.122104
      ESP Fit Center  177 is at  -0.691156 -1.088166 -0.122104
      ESP Fit Center  178 is at  -0.442875 -1.095526 -0.122104
      ESP Fit Center  179 is at  -0.195467 -1.073470 -0.122104
      ESP Fit Center  180 is at   0.047597 -1.022307 -0.122104
      ESP Fit Center  181 is at   0.040124  2.994959 -0.364661
      ESP Fit Center  182 is at  -0.199653  3.045430 -0.364661
      ESP Fit Center  183 is at  -0.443715  3.067188 -0.364661
      ESP Fit Center  184 is at  -0.688638  3.059927 -0.364661
      ESP Fit Center  185 is at  -0.930984  3.023749 -0.364661
      ESP Fit Center  186 is at  -0.930984 -1.023749 -0.364661
      ESP Fit Center  187 is at  -0.688638 -1.059927 -0.364661
      ESP Fit Center  188 is at  -0.443715 -1.067188 -0.364661
      ESP Fit Center  189 is at  -0.199653 -1.045430 -0.364661
      ESP Fit Center  190 is at   0.040124 -0.994959 -0.364661
      ESP Fit Center  191 is at  -0.074614  2.965202 -0.602287
      ESP Fit Center  192 is at  -0.319377  3.003196 -0.602287
      ESP Fit Center  193 is at  -0.566953  3.010824 -0.602287
      ESP Fit Center  194 is at  -0.813590  2.987970 -0.602287
      ESP Fit Center  195 is at  -0.813590 -0.987970 -0.602287
      ESP Fit Center  196 is at  -0.566953 -1.010824 -0.602287
      ESP Fit Center  197 is at  -0.319377 -1.003196 -0.602287
      ESP Fit Center  198 is at  -0.074614 -0.965202 -0.602287
      ESP Fit Center  199 is at  -0.197251  2.903537 -0.831768
      ESP Fit Center  200 is at  -0.443196  2.927263 -0.831768
      ESP Fit Center  201 is at  -0.443196 -0.927263 -0.831768
      ESP Fit Center  202 is at  -0.197251 -0.903537 -0.831768
      ESP Fit Center  203 is at  -1.147000  1.000000  3.009000
      ESP Fit Center  204 is at  -0.901347  1.000000  2.993545
      ESP Fit Center  205 is at  -1.024173  1.212742  2.993545
      ESP Fit Center  206 is at  -1.269827  1.212742  2.993545
      ESP Fit Center  207 is at  -1.392653  1.000000  2.993545
      ESP Fit Center  208 is at  -1.269827  0.787258  2.993545
      ESP Fit Center  209 is at  -1.024173  0.787258  2.993545
      ESP Fit Center  210 is at  -0.659568  1.000000  2.947423
      ESP Fit Center  211 is at  -0.724871  1.243716  2.947423
      ESP Fit Center  212 is at  -0.903284  1.422129  2.947423
      ESP Fit Center  213 is at  -1.147000  1.487432  2.947423
      ESP Fit Center  214 is at  -1.390716  1.422129  2.947423
      ESP Fit Center  215 is at  -1.569129  1.243716  2.947423
      ESP Fit Center  216 is at  -1.634432  1.000000  2.947423
      ESP Fit Center  217 is at  -1.569129  0.756284  2.947423
      ESP Fit Center  218 is at  -1.390716  0.577871  2.947423
      ESP Fit Center  219 is at  -1.147000  0.512568  2.947423
      ESP Fit Center  220 is at  -0.903284  0.577871  2.947423
      ESP Fit Center  221 is at  -0.724871  0.756284  2.947423
      ESP Fit Center  222 is at  -0.425476  1.000000  2.871362
      ESP Fit Center  223 is at  -0.468989  1.246776  2.871362
      ESP Fit Center  224 is at  -0.594280  1.463787  2.871362
      ESP Fit Center  225 is at  -0.786238  1.624858  2.871362
      ESP Fit Center  226 is at  -1.021709  1.710563  2.871362
      ESP Fit Center  227 is at  -1.272291  1.710563  2.871362
      ESP Fit Center  228 is at  -1.507762  1.624858  2.871362
      ESP Fit Center  229 is at  -1.699720  1.463787  2.871362
      ESP Fit Center  230 is at  -1.825011  1.246776  2.871362
      ESP Fit Center  231 is at  -1.868524  1.000000  2.871362
      ESP Fit Center  232 is at  -1.825011  0.753224  2.871362
      ESP Fit Center  233 is at  -1.699720  0.536213  2.871362
      ESP Fit Center  234 is at  -1.507762  0.375142  2.871362
      ESP Fit Center  235 is at  -1.272291  0.289437  2.871362
      ESP Fit Center  236 is at  -1.021709  0.289437  2.871362
      ESP Fit Center  237 is at  -0.786238  0.375142  2.871362
      ESP Fit Center  238 is at  -0.594280  0.536213  2.871362
      ESP Fit Center  239 is at  -0.468989  0.753224  2.871362
      ESP Fit Center  240 is at  -0.202763  1.000000  2.766561
      ESP Fit Center  241 is at  -0.234937  1.244387  2.766561
      ESP Fit Center  242 is at  -0.329267  1.472119  2.766561
      ESP Fit Center  243 is at  -0.479323  1.667677  2.766561
      ESP Fit Center  244 is at  -0.674881  1.817733  2.766561
      ESP Fit Center  245 is at  -0.902613  1.912063  2.766561
      ESP Fit Center  246 is at  -1.147000  1.944237  2.766561
      ESP Fit Center  247 is at  -1.391387  1.912063  2.766561
      ESP Fit Center  248 is at  -1.619119  1.817733  2.766561
      ESP Fit Center  249 is at  -1.814677  1.667677  2.766561
      ESP Fit Center  250 is at  -1.964733  1.472119  2.766561
      ESP Fit Center  251 is at  -2.059063  1.244387  2.766561
      ESP Fit Center  252 is at  -2.091237  1.000000  2.766561
      ESP Fit Center  253 is at  -2.059063  0.755613  2.766561
      ESP Fit Center  254 is at  -1.964733  0.527881  2.766561
      ESP Fit Center  255 is at  -1.814677  0.332323  2.766561
      ESP Fit Center  256 is at  -1.619119  0.182267  2.766561
      ESP Fit Center  257 is at  -1.391387  0.087937  2.766561
      ESP Fit Center  258 is at  -1.147000  0.055763  2.766561
      ESP Fit Center  259 is at  -0.902613  0.087937  2.766561
      ESP Fit Center  260 is at  -0.674881  0.182267  2.766561
      ESP Fit Center  261 is at  -0.479323  0.332323  2.766561
      ESP Fit Center  262 is at  -0.329267  0.527881  2.766561
      ESP Fit Center  263 is at  -0.234937  0.755613  2.766561
      ESP Fit Center  264 is at   0.005059  1.000000  2.634673
      ESP Fit Center  265 is at  -0.021875  1.247659  2.634673
      ESP Fit Center  266 is at  -0.101419  1.483737  2.634673
      ESP Fit Center  267 is at  -0.229854  1.697196  2.634673
      ESP Fit Center  268 is at  -0.401173  1.878056  2.634673
      ESP Fit Center  269 is at  -0.607366  2.017858  2.634673
      ESP Fit Center  270 is at  -0.838792  2.110067  2.634673
      ESP Fit Center  271 is at  -1.084629  2.150370  2.634673
      ESP Fit Center  272 is at  -1.333382  2.136882  2.634673
      ESP Fit Center  273 is at  -1.573421  2.070236  2.634673
      ESP Fit Center  274 is at  -1.793521  1.953547  2.634673
      ESP Fit Center  275 is at  -1.983390  1.792270  2.634673
      ESP Fit Center  276 is at  -2.134150  1.593949  2.634673
      ESP Fit Center  277 is at  -2.238752  1.367854  2.634673
      ESP Fit Center  278 is at  -2.292306  1.124559  2.634673
      ESP Fit Center  279 is at  -2.292306  0.875441  2.634673
      ESP Fit Center  280 is at  -2.238752  0.632146  2.634673
      ESP Fit Center  281 is at  -2.134150  0.406051  2.634673
      ESP Fit Center  282 is at  -1.983390  0.207730  2.634673
      ESP Fit Center  283 is at  -1.793521  0.046453  2.634673
      ESP Fit Center  284 is at  -1.573421 -0.070236  2.634673
      ESP Fit Center  285 is at  -1.333382 -0.136882  2.634673
      ESP Fit Center  286 is at  -1.084629 -0.150370  2.634673
      ESP Fit Center  287 is at  -0.838792 -0.110067  2.634673
      ESP Fit Center  288 is at  -0.607366 -0.017858  2.634673
      ESP Fit Center  289 is at  -0.401173  0.121944  2.634673
      ESP Fit Center  290 is at  -0.229854  0.302804  2.634673
      ESP Fit Center  291 is at  -0.101419  0.516263  2.634673
      ESP Fit Center  292 is at  -0.021875  0.752341  2.634673
      ESP Fit Center  293 is at   0.194712  1.000000  2.477779
      ESP Fit Center  294 is at   0.171867  1.246539  2.477779
      ESP Fit Center  295 is at   0.104109  1.484682  2.477779
      ESP Fit Center  296 is at  -0.006253  1.706321  2.477779
      ESP Fit Center  297 is at  -0.155463  1.903906  2.477779
      ESP Fit Center  298 is at  -0.338438  2.070710  2.477779
      ESP Fit Center  299 is at  -0.548947  2.201052  2.477779
      ESP Fit Center  300 is at  -0.779823  2.290493  2.477779
      ESP Fit Center  301 is at  -1.023202  2.335989  2.477779
      ESP Fit Center  302 is at  -1.270798  2.335989  2.477779
      ESP Fit Center  303 is at  -1.514177  2.290493  2.477779
      ESP Fit Center  304 is at  -1.745053  2.201052  2.477779
      ESP Fit Center  305 is at  -1.955562  2.070710  2.477779
      ESP Fit Center  306 is at  -2.138537  1.903906  2.477779
      ESP Fit Center  307 is at  -2.287747  1.706321  2.477779
      ESP Fit Center  308 is at  -2.398109  1.484682  2.477779
      ESP Fit Center  309 is at  -2.465867  1.246539  2.477779
      ESP Fit Center  310 is at  -2.488712  1.000000  2.477779
      ESP Fit Center  311 is at  -2.465867  0.753461  2.477779
      ESP Fit Center  312 is at  -2.398109  0.515318  2.477779
      ESP Fit Center  313 is at  -2.287747  0.293679  2.477779
      ESP Fit Center  314 is at  -2.138537  0.096094  2.477779
      ESP Fit Center  315 is at  -1.955562 -0.070710  2.477779
      ESP Fit Center  316 is at  -1.745053 -0.201052  2.477779
      ESP Fit Center  317 is at  -1.514177 -0.290493  2.477779
      ESP Fit Center  318 is at  -1.270798 -0.335989  2.477779
      ESP Fit Center  319 is at  -1.023202 -0.335989  2.477779
      ESP Fit Center  320 is at  -0.779823 -0.290493  2.477779
      ESP Fit Center  321 is at  -0.548947 -0.201052  2.477779
      ESP Fit Center  322 is at  -0.338438 -0.070710  2.477779
      ESP Fit Center  323 is at  -0.155463  0.096094  2.477779
      ESP Fit Center  324 is at  -0.006253  0.293679  2.477779
      ESP Fit Center  325 is at   0.104109  0.515318  2.477779
      ESP Fit Center  326 is at   0.171867  0.753461  2.477779
      ESP Fit Center  327 is at   0.281379  1.490363  2.298351
      ESP Fit Center  328 is at   0.181186  1.718779  2.298351
      ESP Fit Center  329 is at   0.044765  1.927588  2.298351
      ESP Fit Center  330 is at  -0.124165  2.111095  2.298351
      ESP Fit Center  331 is at  -0.320996  2.264294  2.298351
      ESP Fit Center  332 is at  -0.540357  2.383006  2.298351
      ESP Fit Center  333 is at  -0.776266  2.463994  2.298351
      ESP Fit Center  334 is at  -1.022288  2.505048  2.298351
      ESP Fit Center  335 is at  -1.271712  2.505048  2.298351
      ESP Fit Center  336 is at  -1.517734  2.463994  2.298351
      ESP Fit Center  337 is at  -1.753643  2.383006  2.298351
      ESP Fit Center  338 is at  -1.973004  2.264294  2.298351
      ESP Fit Center  339 is at  -2.169835  2.111095  2.298351
      ESP Fit Center  340 is at  -2.338765  1.927588  2.298351
      ESP Fit Center  341 is at  -2.475186  1.718779  2.298351
      ESP Fit Center  342 is at  -2.575379  1.490363  2.298351
      ESP Fit Center  343 is at  -2.636609  1.248572  2.298351
      ESP Fit Center  344 is at  -2.657206  1.000000  2.298351
      ESP Fit Center  345 is at  -2.636609  0.751428  2.298351
      ESP Fit Center  346 is at  -2.575379  0.509637  2.298351
      ESP Fit Center  347 is at  -2.475186  0.281221  2.298351
      ESP Fit Center  348 is at  -2.338765  0.072412  2.298351
      ESP Fit Center  349 is at  -2.169835 -0.111095  2.298351
      ESP Fit Center  350 is at  -1.973004 -0.264294  2.298351
      ESP Fit Center  351 is at  -1.753643 -0.383006  2.298351
      ESP Fit Center  352 is at  -1.517734 -0.463994  2.298351
      ESP Fit Center  353 is at  -1.271712 -0.505048  2.298351
      ESP Fit Center  354 is at  -1.022288 -0.505048  2.298351
      ESP Fit Center  355 is at  -0.776266 -0.463994  2.298351
      ESP Fit Center  356 is at  -0.540357 -0.383006  2.298351
      ESP Fit Center  357 is at  -0.320996 -0.264294  2.298351
      ESP Fit Center  358 is at  -0.124165 -0.111095  2.298351
      ESP Fit Center  359 is at   0.044765  0.072412  2.298351
      ESP Fit Center  360 is at   0.181186  0.281221  2.298351
      ESP Fit Center  361 is at   0.281379  0.509637  2.298351
      ESP Fit Center  362 is at   0.220328  1.932229  2.099221
      ESP Fit Center  363 is at   0.066115  2.125606  2.099221
      ESP Fit Center  364 is at  -0.115197  2.293839  2.099221
      ESP Fit Center  365 is at  -0.319559  2.433170  2.099221
      ESP Fit Center  366 is at  -0.542403  2.540487  2.099221
      ESP Fit Center  367 is at  -0.778754  2.613391  2.099221
      ESP Fit Center  368 is at  -1.023330  2.650255  2.099221
      ESP Fit Center  369 is at  -1.270670  2.650255  2.099221
      ESP Fit Center  370 is at  -1.515246  2.613391  2.099221
      ESP Fit Center  371 is at  -1.751597  2.540487  2.099221
      ESP Fit Center  372 is at  -1.974441  2.433170  2.099221
      ESP Fit Center  373 is at  -2.178803  2.293839  2.099221
      ESP Fit Center  374 is at  -2.360115  2.125606  2.099221
      ESP Fit Center  375 is at  -2.514328  1.932229  2.099221
      ESP Fit Center  376 is at  -2.637998  1.718027  2.099221
      ESP Fit Center  377 is at  -2.728361  1.487785  2.099221
      ESP Fit Center  378 is at  -2.783399  1.246647  2.099221
      ESP Fit Center  379 is at  -2.801883  1.000000  2.099221
      ESP Fit Center  380 is at  -2.783399  0.753353  2.099221
      ESP Fit Center  381 is at  -2.728361  0.512215  2.099221
      ESP Fit Center  382 is at  -2.637998  0.281973  2.099221
      ESP Fit Center  383 is at  -2.514328  0.067771  2.099221
      ESP Fit Center  384 is at  -2.360115 -0.125606  2.099221
      ESP Fit Center  385 is at  -2.178803 -0.293839  2.099221
      ESP Fit Center  386 is at  -1.974441 -0.433170  2.099221
      ESP Fit Center  387 is at  -1.751597 -0.540487  2.099221
      ESP Fit Center  388 is at  -1.515246 -0.613391  2.099221
      ESP Fit Center  389 is at  -1.270670 -0.650255  2.099221
      ESP Fit Center  390 is at  -1.023330 -0.650255  2.099221
      ESP Fit Center  391 is at  -0.778754 -0.613391  2.099221
      ESP Fit Center  392 is at  -0.542403 -0.540487  2.099221
      ESP Fit Center  393 is at  -0.319559 -0.433170  2.099221
      ESP Fit Center  394 is at  -0.115197 -0.293839  2.099221
      ESP Fit Center  395 is at   0.066115 -0.125606  2.099221
      ESP Fit Center  396 is at   0.220328  0.067771  2.099221
      ESP Fit Center  397 is at   0.211550  2.139959  1.883527
      ESP Fit Center  398 is at   0.039677  2.317938  1.883527
      ESP Fit Center  399 is at  -0.155293  2.470266  1.883527
      ESP Fit Center  400 is at  -0.369566  2.593976  1.883527
      ESP Fit Center  401 is at  -0.598970  2.686662  1.883527
      ESP Fit Center  402 is at  -0.839042  2.746518  1.883527
      ESP Fit Center  403 is at  -1.085107  2.772381  1.883527
      ESP Fit Center  404 is at  -1.332377  2.763746  1.883527
      ESP Fit Center  405 is at  -1.576039  2.720782  1.883527
      ESP Fit Center  406 is at  -1.811350  2.644324  1.883527
      ESP Fit Center  407 is at  -2.033731  2.535862  1.883527
      ESP Fit Center  408 is at  -2.238852  2.397506  1.883527
      ESP Fit Center  409 is at  -2.422721  2.231950  1.883527
      ESP Fit Center  410 is at  -2.581760  2.042414  1.883527
      ESP Fit Center  411 is at  -2.712873  1.832590  1.883527
      ESP Fit Center  412 is at  -2.813508  1.606559  1.883527
      ESP Fit Center  413 is at  -2.881707  1.368723  1.883527
      ESP Fit Center  414 is at  -2.916141  1.123710  1.883527
      ESP Fit Center  415 is at  -2.916141  0.876290  1.883527
      ESP Fit Center  416 is at  -2.881707  0.631277  1.883527
      ESP Fit Center  417 is at  -2.813508  0.393441  1.883527
      ESP Fit Center  418 is at  -2.712873  0.167410  1.883527
      ESP Fit Center  419 is at  -2.581760 -0.042414  1.883527
      ESP Fit Center  420 is at  -2.422721 -0.231950  1.883527
      ESP Fit Center  421 is at  -2.238852 -0.397506  1.883527
      ESP Fit Center  422 is at  -2.033731 -0.535862  1.883527
      ESP Fit Center  423 is at  -1.811350 -0.644324  1.883527
      ESP Fit Center  424 is at  -1.576039 -0.720782  1.883527
      ESP Fit Center  425 is at  -1.332377 -0.763746  1.883527
      ESP Fit Center  426 is at  -1.085107 -0.772381  1.883527
      ESP Fit Center  427 is at  -0.839042 -0.746518  1.883527
      ESP Fit Center  428 is at  -0.598970 -0.686662  1.883527
      ESP Fit Center  429 is at  -0.369566 -0.593976  1.883527
      ESP Fit Center  430 is at  -0.155293 -0.470266  1.883527
      ESP Fit Center  431 is at   0.039677 -0.317938  1.883527
      ESP Fit Center  432 is at   0.211550 -0.139959  1.883527
      ESP Fit Center  433 is at   0.315922  2.155258  1.654673
      ESP Fit Center  434 is at   0.148888  2.339938  1.654673
      ESP Fit Center  435 is at  -0.041271  2.500708  1.654673
      ESP Fit Center  436 is at  -0.251162  2.634697  1.654673
      ESP Fit Center  437 is at  -0.477038  2.739515  1.654673
      ESP Fit Center  438 is at  -0.714871  2.813291  1.654673
      ESP Fit Center  439 is at  -0.960415  2.854709  1.654673
      ESP Fit Center  440 is at  -1.209288  2.863030  1.654673
      ESP Fit Center  441 is at  -1.457050  2.838105  1.654673
      ESP Fit Center  442 is at  -1.699279  2.780379  1.654673
      ESP Fit Center  443 is at  -1.931652  2.690882  1.654673
      ESP Fit Center  444 is at  -2.150024  2.571211  1.654673
      ESP Fit Center  445 is at  -2.350496  2.423502  1.654673
      ESP Fit Center  446 is at  -2.529492  2.250390  1.654673
      ESP Fit Center  447 is at  -2.683817  2.054965  1.654673
      ESP Fit Center  448 is at  -2.810718  1.840715  1.654673
      ESP Fit Center  449 is at  -2.907930  1.611462  1.654673
      ESP Fit Center  450 is at  -2.973718  1.371297  1.654673
      ESP Fit Center  451 is at  -3.006908  1.124506  1.654673
      ESP Fit Center  452 is at  -3.006908  0.875494  1.654673
      ESP Fit Center  453 is at  -2.973718  0.628703  1.654673
      ESP Fit Center  454 is at  -2.907930  0.388538  1.654673
      ESP Fit Center  455 is at  -2.810718  0.159285  1.654673
      ESP Fit Center  456 is at  -2.683817 -0.054965  1.654673
      ESP Fit Center  457 is at  -2.529492 -0.250390  1.654673
      ESP Fit Center  458 is at  -2.350496 -0.423502  1.654673
      ESP Fit Center  459 is at  -2.150024 -0.571211  1.654673
      ESP Fit Center  460 is at  -1.931652 -0.690882  1.654673
      ESP Fit Center  461 is at  -1.699279 -0.780379  1.654673
      ESP Fit Center  462 is at  -1.457050 -0.838105  1.654673
      ESP Fit Center  463 is at  -1.209288 -0.863030  1.654673
      ESP Fit Center  464 is at  -0.960415 -0.854709  1.654673
      ESP Fit Center  465 is at  -0.714871 -0.813291  1.654673
      ESP Fit Center  466 is at  -0.477038 -0.739515  1.654673
      ESP Fit Center  467 is at  -0.251162 -0.634697  1.654673
      ESP Fit Center  468 is at  -0.041271 -0.500708  1.654673
      ESP Fit Center  469 is at   0.148888 -0.339938  1.654673
      ESP Fit Center  470 is at   0.315922 -0.155258  1.654673
      ESP Fit Center  471 is at   0.053394  2.505247  1.416267
      ESP Fit Center  472 is at  -0.148948  2.646392  1.416267
      ESP Fit Center  473 is at  -0.367678  2.760503  1.416267
      ESP Fit Center  474 is at  -0.599204  2.845707  1.416267
      ESP Fit Center  475 is at  -0.839725  2.900604  1.416267
      ESP Fit Center  476 is at  -1.085292  2.924294  1.416267
      ESP Fit Center  477 is at  -1.331872  2.916386  1.416267
      ESP Fit Center  478 is at  -1.575416  2.877012  1.416267
      ESP Fit Center  479 is at  -1.811925  2.806817  1.416267
      ESP Fit Center  480 is at  -2.037517  2.706955  1.416267
      ESP Fit Center  481 is at  -2.248486  2.579064  1.416267
      ESP Fit Center  482 is at  -2.441369  2.425245  1.416267
      ESP Fit Center  483 is at  -2.612999  2.248023  1.416267
      ESP Fit Center  484 is at  -2.760557  2.050309  1.416267
      ESP Fit Center  485 is at  -2.881620  1.835349  1.416267
      ESP Fit Center  486 is at  -2.974201  1.606672  1.416267
      ESP Fit Center  487 is at  -3.036779  1.368034  1.416267
      ESP Fit Center  488 is at  -3.068327  1.123353  1.416267
      ESP Fit Center  489 is at  -3.068327  0.876647  1.416267
      ESP Fit Center  490 is at  -3.036779  0.631966  1.416267
      ESP Fit Center  491 is at  -2.974201  0.393328  1.416267
      ESP Fit Center  492 is at  -2.881620  0.164651  1.416267
      ESP Fit Center  493 is at  -2.760557 -0.050309  1.416267
      ESP Fit Center  494 is at  -2.612999 -0.248023  1.416267
      ESP Fit Center  495 is at  -2.441369 -0.425245  1.416267
      ESP Fit Center  496 is at  -2.248486 -0.579064  1.416267
      ESP Fit Center  497 is at  -2.037517 -0.706955  1.416267
      ESP Fit Center  498 is at  -1.811925 -0.806817  1.416267
      ESP Fit Center  499 is at  -1.575416 -0.877012  1.416267
      ESP Fit Center  500 is at  -1.331872 -0.916386  1.416267
      ESP Fit Center  501 is at  -1.085292 -0.924294  1.416267
      ESP Fit Center  502 is at  -0.839725 -0.900604  1.416267
      ESP Fit Center  503 is at  -0.599204 -0.845707  1.416267
      ESP Fit Center  504 is at  -0.367678 -0.760503  1.416267
      ESP Fit Center  505 is at  -0.148948 -0.646392  1.416267
      ESP Fit Center  506 is at   0.053394 -0.505247  1.416267
      ESP Fit Center  507 is at  -0.355190  2.788712  1.172069
      ESP Fit Center  508 is at  -0.590426  2.875281  1.172069
      ESP Fit Center  509 is at  -0.834801  2.931058  1.172069
      ESP Fit Center  510 is at  -1.084303  2.955127  1.172069
      ESP Fit Center  511 is at  -1.334834  2.947093  1.172069
      ESP Fit Center  512 is at  -1.582280  2.907088  1.172069
      ESP Fit Center  513 is at  -1.822580  2.835768  1.172069
      ESP Fit Center  514 is at  -2.051786  2.734306  1.172069
      ESP Fit Center  515 is at  -2.266136  2.604366  1.172069
      ESP Fit Center  516 is at  -2.462110  2.448082  1.172069
      ESP Fit Center  517 is at  -2.636489  2.268021  1.172069
      ESP Fit Center  518 is at  -2.786411  2.067138  1.172069
      ESP Fit Center  519 is at  -2.909414  1.848734  1.172069
      ESP Fit Center  520 is at  -3.003479  1.616393  1.172069
      ESP Fit Center  521 is at  -3.067060  1.373932  1.172069
      ESP Fit Center  522 is at  -3.099113  1.125330  1.172069
      ESP Fit Center  523 is at  -3.099113  0.874670  1.172069
      ESP Fit Center  524 is at  -3.067060  0.626068  1.172069
      ESP Fit Center  525 is at  -3.003479  0.383607  1.172069
      ESP Fit Center  526 is at  -2.909414  0.151266  1.172069
      ESP Fit Center  527 is at  -2.786411 -0.067138  1.172069
      ESP Fit Center  528 is at  -2.636489 -0.268021  1.172069
      ESP Fit Center  529 is at  -2.462110 -0.448082  1.172069
      ESP Fit Center  530 is at  -2.266136 -0.604366  1.172069
      ESP Fit Center  531 is at  -2.051786 -0.734306  1.172069
      ESP Fit Center  532 is at  -1.822580 -0.835768  1.172069
      ESP Fit Center  533 is at  -1.582280 -0.907088  1.172069
      ESP Fit Center  534 is at  -1.334834 -0.947093  1.172069
      ESP Fit Center  535 is at  -1.084303 -0.955127  1.172069
      ESP Fit Center  536 is at  -0.834801 -0.931058  1.172069
      ESP Fit Center  537 is at  -0.590426 -0.875281  1.172069
      ESP Fit Center  538 is at  -0.355190 -0.788712  1.172069
      ESP Fit Center  539 is at  -0.834801  2.931058  0.925931
      ESP Fit Center  540 is at  -1.084303  2.955127  0.925931
      ESP Fit Center  541 is at  -1.334834  2.947093  0.925931
      ESP Fit Center  542 is at  -1.582280  2.907088  0.925931
      ESP Fit Center  543 is at  -1.822580  2.835768  0.925931
      ESP Fit Center  544 is at  -2.051786  2.734306  0.925931
      ESP Fit Center  545 is at  -2.266136  2.604366  0.925931
      ESP Fit Center  546 is at  -2.462110  2.448082  0.925931
      ESP Fit Center  547 is at  -2.636489  2.268021  0.925931
      ESP Fit Center  548 is at  -2.786411  2.067138  0.925931
      ESP Fit Center  549 is at  -2.909414  1.848734  0.925931
      ESP Fit Center  550 is at  -3.003479  1.616393  0.925931
      ESP Fit Center  551 is at  -3.067060  1.373932  0.925931
      ESP Fit Center  552 is at  -3.099113  1.125330  0.925931
      ESP Fit Center  553 is at  -3.099113  0.874670  0.925931
      ESP Fit Center  554 is at  -3.067060  0.626068  0.925931
      ESP Fit Center  555 is at  -3.003479  0.383607  0.925931
      ESP Fit Center  556 is at  -2.909414  0.151266  0.925931
      ESP Fit Center  557 is at  -2.786411 -0.067138  0.925931
      ESP Fit Center  558 is at  -2.636489 -0.268021  0.925931
      ESP Fit Center  559 is at  -2.462110 -0.448082  0.925931
      ESP Fit Center  560 is at  -2.266136 -0.604366  0.925931
      ESP Fit Center  561 is at  -2.051786 -0.734306  0.925931
      ESP Fit Center  562 is at  -1.822580 -0.835768  0.925931
      ESP Fit Center  563 is at  -1.582280 -0.907088  0.925931
      ESP Fit Center  564 is at  -1.334834 -0.947093  0.925931
      ESP Fit Center  565 is at  -1.084303 -0.955127  0.925931
      ESP Fit Center  566 is at  -0.834801 -0.931058  0.925931
      ESP Fit Center  567 is at  -1.085292  2.924294  0.681733
      ESP Fit Center  568 is at  -1.331872  2.916386  0.681733
      ESP Fit Center  569 is at  -1.575416  2.877012  0.681733
      ESP Fit Center  570 is at  -1.811925  2.806817  0.681733
      ESP Fit Center  571 is at  -2.037517  2.706955  0.681733
      ESP Fit Center  572 is at  -2.248486  2.579064  0.681733
      ESP Fit Center  573 is at  -2.441369  2.425245  0.681733
      ESP Fit Center  574 is at  -2.612999  2.248023  0.681733
      ESP Fit Center  575 is at  -2.760557  2.050309  0.681733
      ESP Fit Center  576 is at  -2.881620  1.835349  0.681733
      ESP Fit Center  577 is at  -2.974201  1.606672  0.681733
      ESP Fit Center  578 is at  -3.036779  1.368034  0.681733
      ESP Fit Center  579 is at  -3.068327  1.123353  0.681733
      ESP Fit Center  580 is at  -3.068327  0.876647  0.681733
      ESP Fit Center  581 is at  -3.036779  0.631966  0.681733
      ESP Fit Center  582 is at  -2.974201  0.393328  0.681733
      ESP Fit Center  583 is at  -2.881620  0.164651  0.681733
      ESP Fit Center  584 is at  -2.760557 -0.050309  0.681733
      ESP Fit Center  585 is at  -2.612999 -0.248023  0.681733
      ESP Fit Center  586 is at  -2.441369 -0.425245  0.681733
      ESP Fit Center  587 is at  -2.248486 -0.579064  0.681733
      ESP Fit Center  588 is at  -2.037517 -0.706955  0.681733
      ESP Fit Center  589 is at  -1.811925 -0.806817  0.681733
      ESP Fit Center  590 is at  -1.575416 -0.877012  0.681733
      ESP Fit Center  591 is at  -1.331872 -0.916386  0.681733
      ESP Fit Center  592 is at  -1.085292 -0.924294  0.681733
      ESP Fit Center  593 is at  -1.457050  2.838105  0.443327
      ESP Fit Center  594 is at  -1.699279  2.780379  0.443327
      ESP Fit Center  595 is at  -1.931652  2.690882  0.443327
      ESP Fit Center  596 is at  -2.150024  2.571211  0.443327
      ESP Fit Center  597 is at  -2.350496  2.423502  0.443327
      ESP Fit Center  598 is at  -2.529492  2.250390  0.443327
      ESP Fit Center  599 is at  -2.683817  2.054965  0.443327
      ESP Fit Center  600 is at  -2.810718  1.840715  0.443327
      ESP Fit Center  601 is at  -2.907930  1.611462  0.443327
      ESP Fit Center  602 is at  -2.973718  1.371297  0.443327
      ESP Fit Center  603 is at  -3.006908  1.124506  0.443327
      ESP Fit Center  604 is at  -3.006908  0.875494  0.443327
      ESP Fit Center  605 is at  -2.973718  0.628703  0.443327
      ESP Fit Center  606 is at  -2.907930  0.388538  0.443327
      ESP Fit Center  607 is at  -2.810718  0.159285  0.443327
      ESP Fit Center  608 is at  -2.683817 -0.054965  0.443327
      ESP Fit Center  609 is at  -2.529492 -0.250390  0.443327
      ESP Fit Center  610 is at  -2.350496 -0.423502  0.443327
      ESP Fit Center  611 is at  -2.150024 -0.571211  0.443327
      ESP Fit Center  612 is at  -1.931652 -0.690882  0.443327
      ESP Fit Center  613 is at  -1.699279 -0.780379  0.443327
      ESP Fit Center  614 is at  -1.457050 -0.838105  0.443327
      ESP Fit Center  615 is at  -1.811350  2.644324  0.214473
      ESP Fit Center  616 is at  -2.033731  2.535862  0.214473
      ESP Fit Center  617 is at  -2.238852  2.397506  0.214473
      ESP Fit Center  618 is at  -2.422721  2.231950  0.214473
      ESP Fit Center  619 is at  -2.581760  2.042414  0.214473
      ESP Fit Center  620 is at  -2.712873  1.832590  0.214473
      ESP Fit Center  621 is at  -2.813508  1.606559  0.214473
      ESP Fit Center  622 is at  -2.881707  1.368723  0.214473
      ESP Fit Center  623 is at  -2.916141  1.123710  0.214473
      ESP Fit Center  624 is at  -2.916141  0.876290  0.214473
      ESP Fit Center  625 is at  -2.881707  0.631277  0.214473
      ESP Fit Center  626 is at  -2.813508  0.393441  0.214473
      ESP Fit Center  627 is at  -2.712873  0.167410  0.214473
      ESP Fit Center  628 is at  -2.581760 -0.042414  0.214473
      ESP Fit Center  629 is at  -2.422721 -0.231950  0.214473
      ESP Fit Center  630 is at  -2.238852 -0.397506  0.214473
      ESP Fit Center  631 is at  -2.033731 -0.535862  0.214473
      ESP Fit Center  632 is at  -1.811350 -0.644324  0.214473
      ESP Fit Center  633 is at  -2.837160  1.364252 -0.083967
      ESP Fit Center  634 is at  -2.872965  1.120958 -0.083967
      ESP Fit Center  635 is at  -2.872965  0.875042 -0.083967
      ESP Fit Center  636 is at  -2.837160  0.631748 -0.083967
      ESP Fit Center  637 is at  -2.994714  1.245640 -0.288000
      ESP Fit Center  638 is at  -3.011653  0.998000 -0.288000
      ESP Fit Center  639 is at  -2.994714  0.750360 -0.288000
      ESP Fit Center  640 is at  -3.117292  1.121544 -0.506232
      ESP Fit Center  641 is at  -3.117292  0.874456 -0.506232
      ESP Fit Center  642 is at  -3.200962  1.121847 -0.735713
      ESP Fit Center  643 is at  -3.200962  0.874153 -0.735713
      ESP Fit Center  644 is at  -0.415752  2.914483 -0.973339
      ESP Fit Center  645 is at  -3.257464  1.120515 -0.973339
      ESP Fit Center  646 is at  -3.257464  0.875485 -0.973339
      ESP Fit Center  647 is at  -0.415752 -0.918483 -0.973339
      ESP Fit Center  648 is at   0.029186  2.701336 -1.215896
      ESP Fit Center  649 is at  -0.180852  2.833932 -1.215896
      ESP Fit Center  650 is at  -0.405097  2.940756 -1.215896
      ESP Fit Center  651 is at  -3.285765  1.122195 -1.215896
      ESP Fit Center  652 is at  -3.285765  0.873805 -1.215896
      ESP Fit Center  653 is at  -0.405097 -0.944756 -1.215896
      ESP Fit Center  654 is at  -0.180852 -0.837932 -1.215896
      ESP Fit Center  655 is at   0.029186 -0.705336 -1.215896
      ESP Fit Center  656 is at   0.029186  2.701336 -1.460104
      ESP Fit Center  657 is at  -0.180852  2.833932 -1.460104
      ESP Fit Center  658 is at  -0.405097  2.940756 -1.460104
      ESP Fit Center  659 is at  -0.405097 -0.944756 -1.460104
      ESP Fit Center  660 is at  -0.180852 -0.837932 -1.460104
      ESP Fit Center  661 is at   0.029186 -0.705336 -1.460104
      ESP Fit Center  662 is at   0.202930  2.523910 -1.702661
      ESP Fit Center  663 is at   0.012658  2.678301 -1.702661
      ESP Fit Center  664 is at  -0.194539  2.809104 -1.702661
      ESP Fit Center  665 is at  -0.415752  2.914483 -1.702661
      ESP Fit Center  666 is at  -0.415752 -0.918483 -1.702661
      ESP Fit Center  667 is at  -0.194539 -0.813104 -1.702661
      ESP Fit Center  668 is at   0.012658 -0.682301 -1.702661
      ESP Fit Center  669 is at   0.202930 -0.527910 -1.702661
      ESP Fit Center  670 is at  -0.081764  2.675023 -1.940287
      ESP Fit Center  671 is at  -0.296273  2.798870 -1.940287
      ESP Fit Center  672 is at  -0.524376  2.895417 -1.940287
      ESP Fit Center  673 is at  -0.524376 -0.899417 -1.940287
      ESP Fit Center  674 is at  -0.296273 -0.802870 -1.940287
      ESP Fit Center  675 is at  -0.081764 -0.679023 -1.940287
      ESP Fit Center  676 is at  -0.412475  2.761220 -2.169768
      ESP Fit Center  677 is at  -3.117292  1.121544 -2.169768
      ESP Fit Center  678 is at  -3.117292  0.874456 -2.169768
      ESP Fit Center  679 is at  -0.412475 -0.765220 -2.169768
      ESP Fit Center  680 is at  -0.583970  2.711646 -2.388000
      ESP Fit Center  681 is at  -3.011653  0.998000 -2.388000
      ESP Fit Center  682 is at  -0.583970 -0.715646 -2.388000
      ESP Fit Center  683 is at  -0.766944  2.627686 -2.592033
      ESP Fit Center  684 is at  -2.872965  1.120958 -2.592033
      ESP Fit Center  685 is at  -2.872965  0.875042 -2.592033
      ESP Fit Center  686 is at  -0.766944 -0.631686 -2.592033
      ESP Fit Center  687 is at  -1.008882  2.514348 -2.779107
      ESP Fit Center  688 is at  -2.676099  1.363551 -2.779107
      ESP Fit Center  689 is at  -2.715531  1.120911 -2.779107
      ESP Fit Center  690 is at  -2.715531  0.875089 -2.779107
      ESP Fit Center  691 is at  -2.676099  0.632449 -2.779107
      ESP Fit Center  692 is at  -1.008882 -0.518348 -2.779107
      ESP Fit Center  693 is at  -1.068451  2.342096 -2.946693
      ESP Fit Center  694 is at  -2.451701  1.485624 -2.946693
      ESP Fit Center  695 is at  -2.519870  1.246035 -2.946693
      ESP Fit Center  696 is at  -2.542854  0.998000 -2.946693
      ESP Fit Center  697 is at  -2.519870  0.749965 -2.946693
      ESP Fit Center  698 is at  -2.451701  0.510376 -2.946693
      ESP Fit Center  699 is at  -1.379691  2.136767 -3.092524
      ESP Fit Center  700 is at  -1.620128  2.070010 -3.092524
      ESP Fit Center  701 is at  -2.030776  1.791584 -3.092524
      ESP Fit Center  702 is at  -2.181786  1.592933 -3.092524
      ESP Fit Center  703 is at  -2.286562  1.366464 -3.092524
      ESP Fit Center  704 is at  -2.340204  1.122766 -3.092524
      ESP Fit Center  705 is at  -2.340204  0.873234 -3.092524
      ESP Fit Center  706 is at  -2.286562  0.629536 -3.092524
      ESP Fit Center  707 is at  -2.181786  0.403067 -3.092524
      ESP Fit Center  708 is at  -2.030776  0.204416 -3.092524
      ESP Fit Center  709 is at  -1.620128 -0.074010 -3.092524
      ESP Fit Center  710 is at  -1.379691 -0.140767 -3.092524
      ESP Fit Center  711 is at  -1.436931  1.908364 -3.214629
      ESP Fit Center  712 is at  -1.664239  1.814210 -3.214629
      ESP Fit Center  713 is at  -1.859433  1.664433 -3.214629
      ESP Fit Center  714 is at  -2.009210  1.469239 -3.214629
      ESP Fit Center  715 is at  -2.103364  1.241931 -3.214629
      ESP Fit Center  716 is at  -2.135478  0.998000 -3.214629
      ESP Fit Center  717 is at  -2.103364  0.754069 -3.214629
      ESP Fit Center  718 is at  -2.009210  0.526761 -3.214629
      ESP Fit Center  719 is at  -1.859433  0.331567 -3.214629
      ESP Fit Center  720 is at  -1.664239  0.181790 -3.214629
      ESP Fit Center  721 is at  -1.436931  0.087636 -3.214629
      ESP Fit Center  722 is at  -1.552121  1.620016 -3.311355
      ESP Fit Center  723 is at  -1.743206  1.459677 -3.311355
      ESP Fit Center  724 is at  -1.867927  1.243653 -3.311355
      ESP Fit Center  725 is at  -1.911242  0.998000 -3.311355
      ESP Fit Center  726 is at  -1.867927  0.752347 -3.311355
      ESP Fit Center  727 is at  -1.743206  0.536323 -3.311355
      ESP Fit Center  728 is at  -1.552121  0.375984 -3.311355
      ESP Fit Center  729 is at  -1.612410  1.240147 -3.381394
      ESP Fit Center  730 is at  -1.677293  0.998000 -3.381394
      ESP Fit Center  731 is at  -1.612410  0.755853 -3.381394
      ESP Fit Center  732 is at   1.368000  1.000000  2.710000
      ESP Fit Center  733 is at   1.618391  1.000000  2.691236
      ESP Fit Center  734 is at   1.493196  1.216845  2.691236
      ESP Fit Center  735 is at   1.242804  1.216845  2.691236
      ESP Fit Center  736 is at   1.117609  1.000000  2.691236
      ESP Fit Center  737 is at   1.242804  0.783155  2.691236
      ESP Fit Center  738 is at   1.493196  0.783155  2.691236
      ESP Fit Center  739 is at   1.863189  1.000000  2.635362
      ESP Fit Center  740 is at   1.796846  1.247594  2.635362
      ESP Fit Center  741 is at   1.615594  1.428846  2.635362
      ESP Fit Center  742 is at   1.368000  1.495189  2.635362
      ESP Fit Center  743 is at   1.120406  1.428846  2.635362
      ESP Fit Center  744 is at   0.939154  1.247594  2.635362
      ESP Fit Center  745 is at   0.872811  1.000000  2.635362
      ESP Fit Center  746 is at   0.939154  0.752406  2.635362
      ESP Fit Center  747 is at   1.120406  0.571154  2.635362
      ESP Fit Center  748 is at   1.368000  0.504811  2.635362
      ESP Fit Center  749 is at   1.615594  0.571154  2.635362
      ESP Fit Center  750 is at   1.796846  0.752406  2.635362
      ESP Fit Center  751 is at   2.096925  1.000000  2.543628
      ESP Fit Center  752 is at   2.052965  1.249307  2.543628
      ESP Fit Center  753 is at   1.926389  1.468544  2.543628
      ESP Fit Center  754 is at   1.732462  1.631267  2.543628
      ESP Fit Center  755 is at   1.494576  1.717851  2.543628
      ESP Fit Center  756 is at   1.241424  1.717851  2.543628
      ESP Fit Center  757 is at   1.003538  1.631267  2.543628
      ESP Fit Center  758 is at   0.809611  1.468544  2.543628
      ESP Fit Center  759 is at   0.683035  1.249307  2.543628
      ESP Fit Center  760 is at   0.639075  1.000000  2.543628
      ESP Fit Center  761 is at   0.683035  0.750693  2.543628
      ESP Fit Center  762 is at   0.809611  0.531456  2.543628
      ESP Fit Center  763 is at   1.003538  0.368733  2.543628
      ESP Fit Center  764 is at   1.241424  0.282149  2.543628
      ESP Fit Center  765 is at   1.494576  0.282149  2.543628
      ESP Fit Center  766 is at   1.732462  0.368733  2.543628
      ESP Fit Center  767 is at   1.926389  0.531456  2.543628
      ESP Fit Center  768 is at   2.052965  0.750693  2.543628
      ESP Fit Center  769 is at   2.314378  1.000000  2.418081
      ESP Fit Center  770 is at   2.282131  1.244941  2.418081
      ESP Fit Center  771 is at   2.187587  1.473189  2.418081
      ESP Fit Center  772 is at   2.037190  1.669190  2.418081
      ESP Fit Center  773 is at   1.841189  1.819587  2.418081
      ESP Fit Center  774 is at   1.612941  1.914131  2.418081
      ESP Fit Center  775 is at   1.368000  1.946378  2.418081
      ESP Fit Center  776 is at   1.123059  1.914131  2.418081
      ESP Fit Center  777 is at   0.894811  1.819587  2.418081
      ESP Fit Center  778 is at   0.698810  1.669190  2.418081
      ESP Fit Center  779 is at   0.548413  1.473189  2.418081
      ESP Fit Center  780 is at   0.453869  1.244941  2.418081
      ESP Fit Center  781 is at   0.421622  1.000000  2.418081
      ESP Fit Center  782 is at   0.453869  0.755059  2.418081
      ESP Fit Center  783 is at   0.548413  0.526811  2.418081
      ESP Fit Center  784 is at   0.698810  0.330810  2.418081
      ESP Fit Center  785 is at   0.894811  0.180413  2.418081
      ESP Fit Center  786 is at   1.123059  0.085869  2.418081
      ESP Fit Center  787 is at   1.368000  0.053622  2.418081
      ESP Fit Center  788 is at   1.612941  0.085869  2.418081
      ESP Fit Center  789 is at   1.841189  0.180413  2.418081
      ESP Fit Center  790 is at   2.037190  0.330810  2.418081
      ESP Fit Center  791 is at   2.187587  0.526811  2.418081
      ESP Fit Center  792 is at   2.282131  0.755059  2.418081
      ESP Fit Center  793 is at   2.510690  1.000000  2.261527
      ESP Fit Center  794 is at   2.483975  1.245645  2.261527
      ESP Fit Center  795 is at   2.405078  1.479803  2.261527
      ESP Fit Center  796 is at   2.277688  1.691527  2.261527
      ESP Fit Center  797 is at   2.107762  1.870915  2.261527
      ESP Fit Center  798 is at   1.903246  2.009581  2.261527
      ESP Fit Center  799 is at   1.673702  2.101039  2.261527
      ESP Fit Center  800 is at   1.429864  2.141014  2.261527
      ESP Fit Center  801 is at   1.183133  2.127637  2.261527
      ESP Fit Center  802 is at   0.945047  2.061533  2.261527
      ESP Fit Center  803 is at   0.726737  1.945792  2.261527
      ESP Fit Center  804 is at   0.538412  1.785827  2.261527
      ESP Fit Center  805 is at   0.388878  1.589118  2.261527
      ESP Fit Center  806 is at   0.388878  0.410882  2.261527
      ESP Fit Center  807 is at   0.538412  0.214173  2.261527
      ESP Fit Center  808 is at   0.726737  0.054208  2.261527
      ESP Fit Center  809 is at   0.945047 -0.061533  2.261527
      ESP Fit Center  810 is at   1.183133 -0.127637  2.261527
      ESP Fit Center  811 is at   1.429864 -0.141014  2.261527
      ESP Fit Center  812 is at   1.673702 -0.101039  2.261527
      ESP Fit Center  813 is at   1.903246 -0.009581  2.261527
      ESP Fit Center  814 is at   2.107762  0.129085  2.261527
      ESP Fit Center  815 is at   2.277688  0.308473  2.261527
      ESP Fit Center  816 is at   2.405078  0.520197  2.261527
      ESP Fit Center  817 is at   2.483975  0.754355  2.261527
      ESP Fit Center  818 is at   2.681477  1.000000  2.077463
      ESP Fit Center  819 is at   2.657741  1.248577  2.077463
      ESP Fit Center  820 is at   2.587390  1.488170  2.077463
      ESP Fit Center  821 is at   2.472967  1.710119  2.077463
      ESP Fit Center  822 is at   2.318608  1.906403  2.077463
      ESP Fit Center  823 is at   2.129891  2.069927  2.077463
      ESP Fit Center  824 is at   1.913638  2.194781  2.077463
      ESP Fit Center  825 is at   1.677664  2.276452  2.077463
      ESP Fit Center  826 is at   1.430498  2.311989  2.077463
      ESP Fit Center  827 is at   1.181073  2.300108  2.077463
      ESP Fit Center  828 is at   0.938404  2.241237  2.077463
      ESP Fit Center  829 is at   0.711262  2.137504  2.077463
      ESP Fit Center  830 is at   0.507856  1.992660  2.077463
      ESP Fit Center  831 is at   0.335537  1.811938  2.077463
      ESP Fit Center  832 is at   0.335537  0.188062  2.077463
      ESP Fit Center  833 is at   0.507856  0.007340  2.077463
      ESP Fit Center  834 is at   0.711262 -0.137504  2.077463
      ESP Fit Center  835 is at   0.938404 -0.241237  2.077463
      ESP Fit Center  836 is at   1.181073 -0.300108  2.077463
      ESP Fit Center  837 is at   1.430498 -0.311989  2.077463
      ESP Fit Center  838 is at   1.677664 -0.276452  2.077463
      ESP Fit Center  839 is at   1.913638 -0.194781  2.077463
      ESP Fit Center  840 is at   2.129891 -0.069927  2.077463
      ESP Fit Center  841 is at   2.318608  0.093597  2.077463
      ESP Fit Center  842 is at   2.472967  0.289881  2.077463
      ESP Fit Center  843 is at   2.587390  0.511830  2.077463
      ESP Fit Center  844 is at   2.657741  0.751423  2.077463
      ESP Fit Center  845 is at   2.822923  1.000000  1.870000
      ESP Fit Center  846 is at   2.801995  1.245883  1.870000
      ESP Fit Center  847 is at   2.739814  1.484693  1.870000
      ESP Fit Center  848 is at   2.638168  1.709558  1.870000
      ESP Fit Center  849 is at   2.499982  1.914012  1.870000
      ESP Fit Center  850 is at   2.329231  2.092170  1.870000
      ESP Fit Center  851 is at   2.130827  2.238909  1.870000
      ESP Fit Center  852 is at   1.910477  2.350007  1.870000
      ESP Fit Center  853 is at   1.674522  2.422267  1.870000
      ESP Fit Center  854 is at   1.429749  2.453612  1.870000
      ESP Fit Center  855 is at   1.183199  2.443138  1.870000
      ESP Fit Center  856 is at   0.941966  2.391149  1.870000
      ESP Fit Center  857 is at   0.712988  2.299138  1.870000
      ESP Fit Center  858 is at   0.502855  2.169754  1.870000
      ESP Fit Center  859 is at   0.502855 -0.169754  1.870000
      ESP Fit Center  860 is at   0.712988 -0.299138  1.870000
      ESP Fit Center  861 is at   0.941966 -0.391149  1.870000
      ESP Fit Center  862 is at   1.183199 -0.443138  1.870000
      ESP Fit Center  863 is at   1.429749 -0.453612  1.870000
      ESP Fit Center  864 is at   1.674522 -0.422267  1.870000
      ESP Fit Center  865 is at   1.910477 -0.350007  1.870000
      ESP Fit Center  866 is at   2.130827 -0.238909  1.870000
      ESP Fit Center  867 is at   2.329231 -0.092170  1.870000
      ESP Fit Center  868 is at   2.499982  0.085988  1.870000
      ESP Fit Center  869 is at   2.638168  0.290442  1.870000
      ESP Fit Center  870 is at   2.739814  0.515307  1.870000
      ESP Fit Center  871 is at   2.801995  0.754117  1.870000
      ESP Fit Center  872 is at   2.931868  1.000000  1.643773
      ESP Fit Center  873 is at   2.912614  1.244643  1.643773
      ESP Fit Center  874 is at   2.855327  1.483262  1.643773
      ESP Fit Center  875 is at   2.761416  1.709981  1.643773
      ESP Fit Center  876 is at   2.633196  1.919218  1.643773
[...]
 **** Fit       0.010295
 **** Fit       0.010266
 **** Fit       0.010179
 **** Fit       0.010040
 **** Fit       0.009858
 **** Fit       0.009648
 **** Fit       0.009424
 **** Fit       0.009201
 **** Fit       0.009201
 **** Fit       0.009423
 **** Fit       0.009647
 **** Fit       0.009858
 **** Fit       0.010039
 **** Fit       0.010178
 **** Fit       0.010265
 **** Fit       0.010051
 **** Fit       0.010011
 **** Fit       0.009897
 **** Fit       0.009721
 **** Fit       0.009507
 **** Fit       0.009280
 **** Fit       0.009066
 **** Fit       0.009066
 **** Fit       0.009279
 **** Fit       0.009506
 **** Fit       0.009721
 **** Fit       0.009896
 **** Fit       0.010011
 **** Fit       0.009812
 **** Fit       0.009753
 **** Fit       0.009592
 **** Fit       0.009372
 **** Fit       0.009153
 **** Fit       0.008991
 **** Fit       0.008931
 **** Fit       0.008991
 **** Fit       0.009152
 **** Fit       0.009372
 **** Fit       0.009592
 **** Fit       0.009753
 **** Fit       0.009580
 **** Fit       0.009470
 **** Fit       0.009250
 **** Fit       0.009139
 **** Fit       0.009249
 **** Fit       0.009470
 **** Fit       0.009356
 **** Fit      -0.003656
 **** Fit      -0.004226
 **** Fit      -0.004784
 **** Fit      -0.005339
 **** Fit      -0.005901
 **** Fit      -0.006477
 **** Fit      -0.007071
 **** Fit      -0.007689
 **** Fit      -0.008334
 **** Fit      -0.009009
 **** Fit      -0.009715
 **** Fit      -0.001507
 **** Fit      -0.002073
 **** Fit      -0.002614
 **** Fit      -0.003138
 **** Fit      -0.003656
 **** Fit      -0.004174
 **** Fit      -0.004698
 **** Fit      -0.005234
 **** Fit      -0.005783
 **** Fit      -0.006350
 **** Fit      -0.006936
 **** Fit      -0.007542
 **** Fit      -0.008166
 **** Fit       0.000998
 **** Fit       0.000378
 **** Fit      -0.000192
 **** Fit      -0.000726
 **** Fit      -0.001233
 **** Fit      -0.001723
 **** Fit      -0.002203
 **** Fit      -0.002680
 **** Fit      -0.003159
 **** Fit      -0.003643
 **** Fit      -0.004136
 **** Fit      -0.004638
 **** Fit      -0.005153
 **** Fit      -0.005678
 **** Fit      -0.006214
 **** Fit      -0.006758
 **** Fit       0.002512
 **** Fit       0.001885
 **** Fit       0.001314
 **** Fit       0.000786
 **** Fit       0.000290
 **** Fit      -0.000183
 **** Fit      -0.000640
 **** Fit      -0.001089
 **** Fit      -0.001533
 **** Fit      -0.001977
 **** Fit      -0.002424
 **** Fit      -0.002876
 **** Fit      -0.003333
 **** Fit      -0.003798
 **** Fit      -0.004267
 **** Fit      -0.004741
 **** Fit      -0.005215
 **** Fit      -0.005687
 **** Fit       0.004531
 **** Fit       0.003828
 **** Fit       0.003200
 **** Fit       0.002631
 **** Fit       0.002109
 **** Fit       0.001623
 **** Fit       0.001165
 **** Fit       0.000726
 **** Fit       0.000301
 **** Fit      -0.000116
 **** Fit      -0.000528
 **** Fit      -0.000939
 **** Fit      -0.001350
 **** Fit      -0.001764
 **** Fit      -0.002181
 **** Fit      -0.002600
 **** Fit      -0.003020
 **** Fit      -0.003439
 **** Fit      -0.003853
 **** Fit      -0.004258
 **** Fit       0.005669
 **** Fit       0.004968
 **** Fit       0.004344
 **** Fit       0.003781
 **** Fit       0.003266
 **** Fit       0.002791
 **** Fit       0.002346
 **** Fit       0.001924
 **** Fit       0.001518
 **** Fit       0.001125
 **** Fit       0.000739
 **** Fit       0.000358
 **** Fit      -0.000021
 **** Fit      -0.000400
 **** Fit      -0.000779
 **** Fit      -0.001157
 **** Fit      -0.001536
 **** Fit      -0.001911
 **** Fit      -0.002282
 **** Fit      -0.002645
 **** Fit      -0.002994
 **** Fit       0.006492
 **** Fit       0.005810
 **** Fit       0.005202
 **** Fit       0.004654
 **** Fit       0.004154
 **** Fit       0.003693
 **** Fit       0.003263
 **** Fit       0.002857
 **** Fit       0.002469
 **** Fit       0.002094
 **** Fit       0.001729
 **** Fit       0.001369
 **** Fit       0.001014
 **** Fit       0.000661
 **** Fit       0.000310
 **** Fit      -0.000040
 **** Fit      -0.000388
 **** Fit      -0.000732
 **** Fit      -0.001069
 **** Fit      -0.001397
 **** Fit      -0.001711
 **** Fit      -0.002006
 **** Fit       0.007038
 **** Fit       0.006388
 **** Fit       0.005808
 **** Fit       0.005284
 **** Fit       0.004805
 **** Fit       0.004364
 **** Fit       0.003953
 **** Fit       0.003564
 **** Fit       0.003193
 **** Fit       0.002835
 **** Fit       0.002486
 **** Fit       0.002145
 **** Fit       0.001808
 **** Fit       0.001475
 **** Fit       0.001144
 **** Fit       0.000817
 **** Fit       0.000493
 **** Fit       0.000176
 **** Fit      -0.000134
 **** Fit      -0.000432
 **** Fit      -0.000713
 **** Fit      -0.000972
 **** Fit       0.007483
 **** Fit       0.006869
 **** Fit       0.006318
 **** Fit       0.005820
 **** Fit       0.005365
 **** Fit       0.004944
 **** Fit       0.004552
 **** Fit       0.004181
 **** Fit       0.003827
 **** Fit       0.003486
 **** Fit       0.003155
 **** Fit       0.002831
 **** Fit       0.002512
 **** Fit       0.002197
 **** Fit       0.001887
 **** Fit       0.001581
 **** Fit       0.001279
 **** Fit       0.000986
 **** Fit       0.000702
 **** Fit       0.000431
 **** Fit       0.000179
 **** Fit      -0.000048
 **** Fit       0.007843
 **** Fit       0.007266
 **** Fit       0.006748
 **** Fit       0.006277
 **** Fit       0.005845
 **** Fit       0.005446
 **** Fit       0.005073
 **** Fit       0.004720
 **** Fit       0.004383
 **** Fit       0.004059
 **** Fit       0.003745
 **** Fit       0.003438
 **** Fit       0.003137
 **** Fit       0.002840
 **** Fit       0.002549
 **** Fit       0.002262
 **** Fit       0.001982
 **** Fit       0.001711
 **** Fit       0.001450
 **** Fit       0.001205
 **** Fit       0.000979
 **** Fit       0.000779
 **** Fit       0.008015
 **** Fit       0.007481
 **** Fit       0.006999
 **** Fit       0.006559
 **** Fit       0.006155
 **** Fit       0.005779
 **** Fit       0.005427
 **** Fit       0.005093
 **** Fit       0.004773
 **** Fit       0.004465
 **** Fit       0.004166
 **** Fit       0.003875
 **** Fit       0.003589
 **** Fit       0.003308
 **** Fit       0.003034
 **** Fit       0.002766
 **** Fit       0.002506
 **** Fit       0.002257
 **** Fit       0.002022
 **** Fit       0.001806
 **** Fit       0.001613
 **** Fit       0.001451
 **** Fit       0.008573
 **** Fit       0.008033
 **** Fit       0.007545
 **** Fit       0.007101
 **** Fit       0.006695
 **** Fit       0.006318
 **** Fit       0.005967
 **** Fit       0.005635
 **** Fit       0.005320
 **** Fit       0.005017
 **** Fit       0.004724
 **** Fit       0.004439
 **** Fit       0.004161
 **** Fit       0.003890
 **** Fit       0.003625
 **** Fit       0.003367
 **** Fit       0.003119
 **** Fit       0.002882
 **** Fit       0.002661
 **** Fit       0.002459
 **** Fit       0.002282
 **** Fit       0.002137
 **** Fit       0.008524
 **** Fit       0.008032
 **** Fit       0.007585
 **** Fit       0.007177
 **** Fit       0.006800
 **** Fit       0.006450
 **** Fit       0.006121
 **** Fit       0.005809
 **** Fit       0.005511
 **** Fit       0.005224
 **** Fit       0.004946
 **** Fit       0.004675
 **** Fit       0.004412
 **** Fit       0.004157
 **** Fit       0.003909
 **** Fit       0.003672
 **** Fit       0.003447
 **** Fit       0.003239
 **** Fit       0.003050
 **** Fit       0.002888
 **** Fit       0.002759
 **** Fit       0.008465
 **** Fit       0.008017
 **** Fit       0.007608
 **** Fit       0.007231
 **** Fit       0.006882
 **** Fit       0.006556
 **** Fit       0.006247
 **** Fit       0.005953
 **** Fit       0.005672
 **** Fit       0.005400
 **** Fit       0.005138
 **** Fit       0.004883
 **** Fit       0.004636
 **** Fit       0.004399
 **** Fit       0.004172
 **** Fit       0.003959
 **** Fit       0.003762
 **** Fit       0.003587
 **** Fit       0.003438
 **** Fit       0.003323
 **** Fit       0.008307
 **** Fit       0.007900
 **** Fit       0.007526
 **** Fit       0.007180
 **** Fit       0.006857
 **** Fit       0.006552
 **** Fit       0.006263
 **** Fit       0.005987
 **** Fit       0.005721
 **** Fit       0.005465
 **** Fit       0.005218
 **** Fit       0.004981
 **** Fit       0.004754
 **** Fit       0.004540
 **** Fit       0.004342
 **** Fit       0.004164
 **** Fit       0.004010
 **** Fit       0.003888
 **** Fit       0.008562
 **** Fit       0.008157
 **** Fit       0.007786
 **** Fit       0.007443
 **** Fit       0.007123
 **** Fit       0.006823
 **** Fit       0.006538
 **** Fit       0.006267
 **** Fit       0.006007
 **** Fit       0.005759
 **** Fit       0.005520
 **** Fit       0.005293
 **** Fit       0.005078
 **** Fit       0.004878
 **** Fit       0.004697
 **** Fit       0.004539
 **** Fit       0.004409
 **** Fit       0.008296
 **** Fit       0.007929
 **** Fit       0.007590
 **** Fit       0.007274
 **** Fit       0.006978
 **** Fit       0.006698
 **** Fit       0.006433
 **** Fit       0.006180
 **** Fit       0.005939
 **** Fit       0.005711
 **** Fit       0.005496
 **** Fit       0.005298
 **** Fit       0.005120
 **** Fit       0.004965
 **** Fit       0.004841
 **** Fit       0.008049
 **** Fit       0.007714
 **** Fit       0.007402
 **** Fit       0.007111
 **** Fit       0.006837
 **** Fit       0.006578
 **** Fit       0.006333
 **** Fit       0.006103
 **** Fit       0.005887
 **** Fit       0.005690
 **** Fit       0.005514
 **** Fit       0.005363
 **** Fit       0.008065
 **** Fit       0.007735
 **** Fit       0.007428
 **** Fit       0.007142
 **** Fit       0.006875
 **** Fit       0.006624
 **** Fit       0.006392
 **** Fit       0.006178
 **** Fit       0.005985
 **** Fit       0.005817
 **** Fit       0.007742
 **** Fit       0.007441
 **** Fit       0.007162
 **** Fit       0.006905
 **** Fit       0.006668
 **** Fit       0.006455
 **** Fit       0.006267
 **** Fit      -0.009702
 **** Fit      -0.008994
 **** Fit      -0.008318
 **** Fit      -0.007672
 **** Fit      -0.007054
 **** Fit      -0.006460
 **** Fit      -0.005885
 **** Fit      -0.005323
 **** Fit      -0.004768
 **** Fit      -0.004211
 **** Fit      -0.003643
 **** Fit      -0.008158
 **** Fit      -0.007532
 **** Fit      -0.006925
 **** Fit      -0.006338
 **** Fit      -0.005770
 **** Fit      -0.005220
 **** Fit      -0.004685
 **** Fit      -0.004161
 **** Fit      -0.003643
 **** Fit      -0.003126
 **** Fit      -0.002603
 **** Fit      -0.002064
 **** Fit      -0.001499
 **** Fit      -0.006753
 **** Fit      -0.006207
 **** Fit      -0.005670
 **** Fit      -0.005143
 **** Fit      -0.004628
 **** Fit      -0.004125
 **** Fit      -0.003632
 **** Fit      -0.003148
 **** Fit      -0.002670
 **** Fit      -0.002193
 **** Fit      -0.001713
 **** Fit      -0.001225
 **** Fit      -0.000719
 **** Fit      -0.000187
 **** Fit       0.000381
 **** Fit       0.000998
 **** Fit      -0.005685
 **** Fit      -0.005212
 **** Fit      -0.004736
 **** Fit      -0.004261
 **** Fit      -0.003791
 **** Fit      -0.003326
 **** Fit      -0.002867
 **** Fit      -0.002415
 **** Fit      -0.001968
 **** Fit      -0.001525
 **** Fit      -0.001081
 **** Fit      -0.000633
 **** Fit      -0.000177
 **** Fit       0.000295
 **** Fit       0.000790
 **** Fit       0.001316
 **** Fit       0.001885
 **** Fit       0.002509
 **** Fit       0.003204
 **** Fit      -0.004258
 **** Fit      -0.003851
 **** Fit      -0.003435
 **** Fit      -0.003015
 **** Fit      -0.002594
 **** Fit      -0.002175
 **** Fit      -0.001757
 **** Fit      -0.001343
 **** Fit      -0.000932
 **** Fit      -0.000521
 **** Fit      -0.000109
 **** Fit       0.000307
 **** Fit       0.000731
 **** Fit       0.001168
 **** Fit       0.001626
 **** Fit       0.002110
 **** Fit       0.002630
 **** Fit       0.003197
 **** Fit       0.003822
 **** Fit       0.004522
 **** Fit      -0.002994
 **** Fit      -0.002644
 **** Fit      -0.002280
 **** Fit      -0.001908
 **** Fit      -0.001531
 **** Fit      -0.001153
 **** Fit      -0.000773
 **** Fit      -0.000395
 **** Fit      -0.000016
 **** Fit       0.000363
 **** Fit       0.000744
 **** Fit       0.001129
 **** Fit       0.001522
 **** Fit       0.001927
 **** Fit       0.002348
 **** Fit       0.002791
 **** Fit       0.003265
 **** Fit       0.003778
 **** Fit       0.004339
 **** Fit       0.004961
 **** Fit       0.005659
 **** Fit      -0.002007
 **** Fit      -0.001711
 **** Fit      -0.001396
 **** Fit      -0.001067
 **** Fit      -0.000729
 **** Fit      -0.000384
 **** Fit      -0.000036
 **** Fit       0.000314
 **** Fit       0.000665
 **** Fit       0.001018
 **** Fit       0.001373
 **** Fit       0.001732
 **** Fit       0.002098
 **** Fit       0.002472
 **** Fit       0.002859
 **** Fit       0.003264
 **** Fit       0.003693
 **** Fit       0.004152
 **** Fit       0.004650
 **** Fit       0.005196
 **** Fit       0.005802
 **** Fit       0.006481
 **** Fit      -0.000973
 **** Fit      -0.000714
 **** Fit      -0.000431
 **** Fit      -0.000133
 **** Fit       0.000178
 **** Fit       0.000496
 **** Fit       0.000820
 **** Fit       0.001148
 **** Fit       0.001478
 **** Fit       0.001811
 **** Fit       0.002148
 **** Fit       0.002489
 **** Fit       0.002837
 **** Fit       0.003194
 **** Fit       0.003565
 **** Fit       0.003952
 **** Fit       0.004363
 **** Fit       0.004803
 **** Fit       0.005279
 **** Fit       0.005802
 **** Fit       0.006380
 **** Fit       0.007028
 **** Fit      -0.000050
 **** Fit       0.000178
 **** Fit       0.000431
 **** Fit       0.000702
 **** Fit       0.000987
 **** Fit       0.001281
 **** Fit       0.001583
 **** Fit       0.001889
 **** Fit       0.002200
 **** Fit       0.002514
 **** Fit       0.002833
 **** Fit       0.003157
 **** Fit       0.003488
 **** Fit       0.003828
 **** Fit       0.004181
 **** Fit       0.004551
 **** Fit       0.004943
 **** Fit       0.005362
 **** Fit       0.005816
 **** Fit       0.006312
 **** Fit       0.006861
 **** Fit       0.007473
 **** Fit       0.000778
 **** Fit       0.000979
 **** Fit       0.001205
 **** Fit       0.001451
 **** Fit       0.001712
 **** Fit       0.001984
 **** Fit       0.002264
 **** Fit       0.002551
 **** Fit       0.002842
 **** Fit       0.003138
 **** Fit       0.003440
 **** Fit       0.003746
 **** Fit       0.004060
 **** Fit       0.004384
 **** Fit       0.004720
 **** Fit       0.005071
 **** Fit       0.005444
 **** Fit       0.005842
 **** Fit       0.006272
 **** Fit       0.006742
 **** Fit       0.007259
 **** Fit       0.007835
 **** Fit       0.001449
 **** Fit       0.001612
 **** Fit       0.001805
 **** Fit       0.002022
 **** Fit       0.002257
 **** Fit       0.002507
 **** Fit       0.002767
 **** Fit       0.003035
 **** Fit       0.003310
 **** Fit       0.003590
 **** Fit       0.003876
 **** Fit       0.004167
 **** Fit       0.004466
 **** Fit       0.004774
 **** Fit       0.005092
 **** Fit       0.005426
 **** Fit       0.005777
 **** Fit       0.006152
 **** Fit       0.006555
 **** Fit       0.006994
 **** Fit       0.007475
 **** Fit       0.008007
 **** Fit       0.002135
 **** Fit       0.002281
 **** Fit       0.002458
 **** Fit       0.002661
 **** Fit       0.002883
 **** Fit       0.003120
 **** Fit       0.003368
 **** Fit       0.003626
 **** Fit       0.003891
 **** Fit       0.004162
 **** Fit       0.004440
 **** Fit       0.004724
 **** Fit       0.005017
 **** Fit       0.005320
 **** Fit       0.005635
 **** Fit       0.005965
 **** Fit       0.006316
 **** Fit       0.006692
 **** Fit       0.007097
 **** Fit       0.007540
 **** Fit       0.008027
 **** Fit       0.008566
 **** Fit       0.002757
 **** Fit       0.002887
 **** Fit       0.003050
 **** Fit       0.003238
 **** Fit       0.003447
 **** Fit       0.003672
 **** Fit       0.003910
 **** Fit       0.004157
 **** Fit       0.004413
 **** Fit       0.004676
 **** Fit       0.004946
 **** Fit       0.005224
 **** Fit       0.005511
 **** Fit       0.005808
 **** Fit       0.006120
 **** Fit       0.006448
 **** Fit       0.006798
 **** Fit       0.007174
 **** Fit       0.007581
 **** Fit       0.008027
 **** Fit       0.008518
 **** Fit       0.003322
 **** Fit       0.003438
 **** Fit       0.003587
 **** Fit       0.003762
 **** Fit       0.003959
 **** Fit       0.004173
 **** Fit       0.004399
 **** Fit       0.004637
 **** Fit       0.004883
 **** Fit       0.005138
 **** Fit       0.005400
 **** Fit       0.005672
 **** Fit       0.005953
 **** Fit       0.006246
 **** Fit       0.006554
 **** Fit       0.006880
 **** Fit       0.007229
 **** Fit       0.007605
 **** Fit       0.008013
 **** Fit       0.008461
 **** Fit       0.003887
 **** Fit       0.004010
 **** Fit       0.004163
 **** Fit       0.004342
 **** Fit       0.004540
 **** Fit       0.004754
 **** Fit       0.004981
 **** Fit       0.005218
 **** Fit       0.005465
 **** Fit       0.005721
 **** Fit       0.005986
 **** Fit       0.006263
 **** Fit       0.006551
 **** Fit       0.006856
 **** Fit       0.007178
 **** Fit       0.007524
 **** Fit       0.007898
 **** Fit       0.008304
 **** Fit       0.004408
 **** Fit       0.004538
 **** Fit       0.004697
 **** Fit       0.004878
 **** Fit       0.005078
 **** Fit       0.005293
 **** Fit       0.005520
 **** Fit       0.005759
 **** Fit       0.006007
 **** Fit       0.006267
 **** Fit       0.006538
 **** Fit       0.006822
 **** Fit       0.007122
 **** Fit       0.007442
 **** Fit       0.007784
 **** Fit       0.008155
 **** Fit       0.008559
 **** Fit       0.004841
 **** Fit       0.004965
 **** Fit       0.005120
 **** Fit       0.005298
 **** Fit       0.005496
 **** Fit       0.005711
 **** Fit       0.005939
 **** Fit       0.006180
 **** Fit       0.006432
 **** Fit       0.006698
 **** Fit       0.006977
 **** Fit       0.007273
 **** Fit       0.007589
 **** Fit       0.007927
 **** Fit       0.008294
 **** Fit       0.005363
 **** Fit       0.005514
 **** Fit       0.005690
 **** Fit       0.005888
 **** Fit       0.006103
 **** Fit       0.006333
 **** Fit       0.006578
 **** Fit       0.006837
 **** Fit       0.007111
 **** Fit       0.007402
 **** Fit       0.007713
 **** Fit       0.008048
 **** Fit       0.005817
 **** Fit       0.005985
 **** Fit       0.006178
 **** Fit       0.006392
 **** Fit       0.006625
 **** Fit       0.006875
 **** Fit       0.007142
 **** Fit       0.007428
 **** Fit       0.007735
 **** Fit       0.008065
 **** Fit       0.006267
 **** Fit       0.006455
 **** Fit       0.006669
 **** Fit       0.006905
 **** Fit       0.007163
 **** Fit       0.007441
 **** Fit       0.007743
 -----------------------------------------------------------------
 Leave Link  602 at Thu Jun  6 20:23:27 2024, MaxMem=   524288000 cpu:        22.6

 Test job not archived.
 1\1\ WCSS.PL-BEM-ASHORT\SP\RHF\6-31G(d)\C3H6O1\ASHORT\06-Jun-2024\0\\#
  HF/6-31G* SCF=Tight Pop=MK IOp(6/33=2,6/41=10,6/42=17) Nosymm\\UNK_C7
 DFF1.pdb\\0,1\C,0,1.,1.,0.\C,0,-0.505,1.,0.\O,0,-1.147,1.,1.049\C,0,-1
 .193,0.998,-1.338\H,0,1.368,1.,1.03\H,0,1.365,1.897,-0.506\H,0,1.365,0
 .103,-0.506\H,0,-0.456,0.997,-2.146\H,0,-1.809,1.896,-1.427\H,0,-1.809
 ,0.1,-1.425\\Version=ES64L-G09RevE.01\HF=-191.9576332\RMSD=3.025e-09\D
 ipole=0.648368,-0.0003896,-1.1228285\Quadrupole=-0.4893738,1.4977479,-
 1.0083741,1.2261368,2.7609693,-2.1214899\PG=C01 [X(C3H6O1)]\\@


 I think that all right-thinking people in this
 country are sick and tired of being told that
 ordinary, decent people are fed up in this country
 with being sick and tired.  I'm certainly not!
 But I'm sick and tired of being told that I am!
                               -- Monty Python
 Job cpu time:       0 days  0 hours  1 minutes 25.4 seconds.
 File lengths (MBytes):  RWF=      5 Int=      0 D2E=      0 Chk=      7 Scr=      1
 Normal termination of Gaussian 09 at Thu Jun  6 20:23:27 2024.
